chemcompute.org
{'UTCtimestamp': '2022-10-04T20:46:24.806062', 'cluster': 'jetstream2', 'clusterJobNumber': '120786', 'status': 'RUNNING', 'nodeList': 'chemcompute-node-2'}
----- GAMESS execution script 'rungms' -----
This job is running on host chemcompute-node-2.novalocal
under operating system Linux at Tue Oct 4 20:46:28 UTC 2022
SLURM has assigned the following compute nodes to this run:
Available scratch disk space (Kbyte units) at beginning of the job is
Filesystem     1K-blocks     Used Available Use% Mounted on
/dev/sda1       62903276 10942656  51960620  18% /
GAMESS temporary binary files will be written to /scratch/120786
GAMESS supplementary output files will be written to /data/slurm/46/460739
Copying input file 460739.inp to your run's scratch directory...
The generated host list is
chemcompute-node-2.novalocal

 Distributed Data Interface kickoff program.
 Initiating 1 compute processes on 1 nodes to run the following command:
 /data/gamess-2019R1-avx2-ddi/gamess.00.x 460739 

          ******************************************************
          *         GAMESS VERSION = 30 JUN 2019 (R1)          *
          *             FROM IOWA STATE UNIVERSITY             *
          * M.W.SCHMIDT, K.K.BALDRIDGE, J.A.BOATZ, S.T.ELBERT, *
          *   M.S.GORDON, J.H.JENSEN, S.KOSEKI, N.MATSUNAGA,   *
          *          K.A.NGUYEN, S.J.SU, T.L.WINDUS,           *
          *       TOGETHER WITH M.DUPUIS, J.A.MONTGOMERY       *
          *         J.COMPUT.CHEM.  14, 1347-1363(1993)        *
          **************** 64 BIT INTEL VERSION ****************

  SINCE 1993, STUDENTS AND POSTDOCS WORKING AT IOWA STATE UNIVERSITY
  AND ALSO IN THEIR VARIOUS JOBS AFTER LEAVING ISU HAVE MADE IMPORTANT
  CONTRIBUTIONS TO THE CODE:
     IVANA ADAMOVIC, CHRISTINE AIKENS, YURI ALEXEEV, POOJA ARORA,
     ANDREY ASADCHEV, ROB BELL, PRADIPTA BANDYOPADHYAY, JONATHAN BENTZ,
     COLLEEN BERTONI, BRETT BODE, KURT BRORSEN, CALEB CARLIN, GALINA CHABAN,
     WEI CHEN, CHEOL HO CHOI, PAUL DAY, ALBERT DEFUSCO, NUWAN DESILVA,
     TIM DUDLEY, DMITRI FEDOROV, ALEX FINDLATER, GRAHAM FLETCHER, 
     MARK FREITAG, KURT GLAESEMANN, ANASTASIA GUNINA,
     DAN KEMP, GRANT MERRILL, NORIYUKI MINEZAWA, JONATHAN MULLIN,
     TAKESHI NAGATA, SEAN NEDD, HEATHER NETZLOFF, BOSILJKA NJEGIC, RYAN OLSON,
     MIKE PAK, BUU PHAM,
     SPENCER PRUITT, LUKE ROSKOP, JIM SHOEMAKER, LYUDMILA SLIPCHENKO,
     TONY SMITH, SAROM SOK LEANG, JIE SONG, TETSUYA TAKETSUGU, SIMON WEBB,
     PENG XU, SOOHAENG YOO, FEDERICO ZAHARIEV

  ADDITIONAL CODE HAS BEEN PROVIDED BY COLLABORATORS IN OTHER GROUPS:
     IOWA STATE UNIVERSITY:
          JOE IVANIC, AARON WEST, LAIMUTIS BYTAUTAS, KLAUS RUEDENBERG
     UNIVERSITY OF TOKYO: KIMIHIKO HIRAO, TAKAHITO NAKAJIMA,
          TAKAO TSUNEDA, MUNEAKI KAMIYA, SUSUMU YANAGISAWA,
          KIYOSHI YAGI, MAHITO CHIBA, SEIKEN TOKURA, NAOAKI KAWAKAMI
     UNIVERSITY OF AARHUS: FRANK JENSEN
     UNIVERSITY OF IOWA: VISVALDAS KAIRYS, HUI LI
     NATIONAL INST. OF STANDARDS AND TECHNOLOGY: WALT STEVENS, DAVID GARMER
     UNIVERSITY OF PISA: BENEDETTA MENNUCCI, JACOPO TOMASI
     UNIVERSITY OF MEMPHIS: HENRY KURTZ, PRAKASHAN KORAMBATH
     UNIVERSITY OF ALBERTA: TOBY ZENG, MARIUSZ KLOBUKOWSKI
     UNIVERSITY OF NEW ENGLAND: MARK SPACKMAN
     MIE UNIVERSITY: HIROAKI UMEDA
     NAT. INST. OF ADVANCED INDUSTRIAL SCIENCE AND TECHNOLOGY: KAZUO KITAURA
     MICHIGAN STATE UNIVERSITY:
          KAROL KOWALSKI, MARTA WLOCH, JEFFREY GOUR, JESSE LUTZ,
          WEI LI, JUN SHEN, J. EMILIANO DEUSTUA, PIOTR PIECUCH
     UNIVERSITY OF MINNESOTA:
          YINAN SHU
     UNIVERSITY OF SILESIA: MONIKA MUSIAL, STANISLAW KUCHARSKI
     FACULTES UNIVERSITAIRES NOTRE-DAME DE LA PAIX:
          OLIVIER QUINET, BENOIT CHAMPAGNE
     UNIVERSITY OF CALIFORNIA - SANTA BARBARA: BERNARD KIRTMAN
     INSTITUTE FOR MOLECULAR SCIENCE:
          KAZUYA ISHIMURA, MICHIO KATOUDA, AND SHIGERU NAGASE
     UNIVERSITY OF NOTRE DAME: ANNA POMOGAEVA, DAN CHIPMAN
     KYUSHU UNIVERSITY:
          HARUYUKI NAKANO,
          FENG LONG GU, JACEK KORCHOWIEC, MARCIN MAKOWSKI, AND YURIKO AOKI,
          HIROTOSHI MORI AND EISAKU MIYOSHI
     PENNSYLVANIA STATE UNIVERSITY:
          TZVETELIN IORDANOV, CHET SWALINA, JONATHAN SKONE,
          SHARON HAMMES-SCHIFFER
     WASEDA UNIVERSITY:
          MASATO KOBAYASHI, TOMOKO AKAMA, TSUGUKI TOUMA,
          TAKESHI YOSHIKAWA, YASUHIRO IKABATA, JUNJI SEINO,
          YUYA NAKAJIMA, HIROMI NAKAI
     NANJING UNIVERSITY: SHUHUA LI
     UNIVERSITY OF NEBRASKA:
          PEIFENG SU, DEJUN SI, NANDUN THELLAMUREGE, YALI WANG, HUI LI
     UNIVERSITY OF ZURICH: ROBERTO PEVERATI, KIM BALDRIDGE
     N. COPERNICUS UNIVERSITY AND JACKSON STATE UNIVERSITY:
          MARIA BARYSZ
     UNIVERSITY OF COPENHAGEN: Jimmy Kromann, CASPER STEINMANN
     TOKYO INSTITUTE OF TECHNOLOGY: HIROYA NAKATA
     NAGOYA UNIVERSITY: YOSHIO NISHIMOTO, STEPHAN IRLE
     MOSCOW STATE UNIVERSITY: VLADIMIR MIRONOV
     A.N.NESMEYANOV INSTITUTE OF ORGANOELEMENT COMPOUNDS OF RUSSIAN ACADEMY OF SCIENCES:
          IGOR S. GERASIMOV

 EXECUTION OF GAMESS BEGUN Tue Oct  4 20:46:28 2022

            ECHO OF THE FIRST FEW INPUT CARDS -
 INPUT CARD>!                                                                               
 INPUT CARD>!   GAMESS Calculation input file                                               
 INPUT CARD>!   Molecula de prueba - YYGC                                                   
 INPUT CARD>!                                                                               
 INPUT CARD> $CONTRL SCFTYP=RHF MAXIT=200 RUNTYP=OPTIMIZE                                   
 INPUT CARD>         COORD=UNIQUE MULT=1                                                    
 INPUT CARD>         ICHARG=0                                                               
 INPUT CARD>         DFTTYP=B3LYP                                                           
 INPUT CARD>         MOLPLT=.FALSE. PLTORB=.FALSE.  $END                                    
 INPUT CARD> $SYSTEM TIMLIM=2879 MWORDS=250  $END                                           
 INPUT CARD>                                                                                
 INPUT CARD> $FORCE METHOD=SEMINUM NVIB=2 $END                                              
 INPUT CARD> $STATPT OPTTOL=0.0005 NSTEP=999 $END                                           
 INPUT CARD> $STATPT IHREP=0 HSSEND=.TRUE.  $END                                            
 INPUT CARD>                                                                                
 INPUT CARD> $DFT    METHOD=GRID  NLEB=590  $END                                            
 INPUT CARD>                                                                                
 INPUT CARD> $BASIS  GBASIS=N31 NGAUSS=6                                                    
 INPUT CARD>         NDFUNC=1   NPFUNC=0  $END                                              
 INPUT CARD>                                                                                
 INPUT CARD> $SCF    DIRSCF=.T. $END                                                        
 INPUT CARD> $GUESS  GUESS=HUCKEL  $END                                                     
 INPUT CARD>                                                                                
 INPUT CARD> $DATA                                                                          
 INPUT CARD>   Molecula de prueba - YYGC                                                    
 INPUT CARD>  Cs                                                                            
 INPUT CARD>                                                                                
 INPUT CARD>C     6.0     0.79     0.99     0.00                                            
 INPUT CARD>C     6.0    -0.36     0.31     0.00                                            
 INPUT CARD>C     6.0    -0.42    -1.19    -0.00                                            
 INPUT CARD>H     1.0     1.75     0.48    -0.00                                            
 INPUT CARD>H     1.0     0.79     2.07     0.00                                            
 INPUT CARD>H     1.0    -1.30     0.84     0.00                                            
 INPUT CARD>H     1.0     0.06    -1.60     0.89                                            
 INPUT CARD>H     1.0    -1.46    -1.52    -0.00                                            
 INPUT CARD> $END                                                                           
 INPUT CARD>                                                                                
 INPUT CARD>                                                                                
 INPUT CARD>! Customizations after this line are persisted when using Do More Calculations  
  250000000 WORDS OF MEMORY AVAILABLE

     BASIS OPTIONS
     -------------
     GBASIS=N31          IGAUSS=       6      POLAR=POPN31  
     NDFUNC=       1     NFFUNC=       0     DIFFSP=       F
     NPFUNC=       0      DIFFS=       F     BASNAM=        


     RUN TITLE
     ---------
    Molecula de prueba - YYGC                                                    

 THE POINT GROUP OF THE MOLECULE IS CS      
 THE ORDER OF THE PRINCIPAL AXIS IS     0

 ATOM      ATOMIC                      COORDINATES (BOHR)
           CHARGE         X                   Y                   Z
 C           6.0     1.4928835303        1.8708287278        0.0000000000
 C           6.0    -0.6803013556        0.5858150562        0.0000000000
 C           6.0    -0.7936849148       -2.2487739254        0.0000000000
 H           1.0     3.3070204785        0.9070684741        0.0000000000
 H           1.0     1.4928835303        3.9117327946        0.0000000000
 H           1.0    -2.4566437840        1.5873698297        0.0000000000
 H           1.0     0.1133835593       -3.0235615804       -1.6818561291
 H           1.0     0.1133835593       -3.0235615804        1.6818561291
 H           1.0    -2.7589999421       -2.8723835013        0.0000000000

          INTERNUCLEAR DISTANCES (ANGS.)
          ------------------------------

                1 C          2 C          3 C          4 H          5 H     

   1 C       0.0000000    1.3360015 *  2.4932910 *  1.0870603 *  1.0800000 *
   2 C       1.3360015 *  0.0000000    1.5011995 *  2.1168373 *  2.1024034 *
   3 C       2.4932910 *  1.5011995 *  0.0000000    2.7382111 *  3.4773122  
   4 H       1.0870603 *  2.1168373 *  2.7382111 *  0.0000000    1.8573368 *
   5 H       1.0800000 *  2.1024034 *  3.4773122    1.8573368 *  0.0000000  
   6 H       2.0953759 *  1.0791200 *  2.2125325 *  3.0711724    2.4250773 *
   7 H       2.8342724 *  2.1486275 *  1.0911462 *  2.8239334 *  3.8462839  
   8 H       2.8342724 *  2.1486275 *  1.0911462 *  2.8239334 *  3.8462839  
   9 H       3.3708456    2.1351581 *  1.0911004 *  3.7820761    4.2368148  

                6 H          7 H          8 H          9 H     

   1 C       2.0953759 *  2.8342724 *  2.8342724 *  3.3708456  
   2 C       1.0791200 *  2.1486275 *  2.1486275 *  2.1351581 *
   3 C       2.2125325 *  1.0911462 *  1.0911462 *  1.0911004 *
   4 H       3.0711724    2.8239334 *  2.8239334 *  3.7820761  
   5 H       2.4250773 *  3.8462839    3.8462839    4.2368148  
   6 H       0.0000000    2.9317742 *  2.9317742 *  2.3654175 *
   7 H       2.9317742 *  0.0000000    1.7800000 *  1.7632073 *
   8 H       2.9317742 *  1.7800000 *  0.0000000    1.7632073 *
   9 H       2.3654175 *  1.7632073 *  1.7632073 *  0.0000000  

  * ... LESS THAN  3.000


     ATOMIC BASIS SET
     ----------------
 THE CONTRACTED PRIMITIVE FUNCTIONS HAVE BEEN UNNORMALIZED
 THE CONTRACTED BASIS FUNCTIONS ARE NOW NORMALIZED TO UNITY

  SHELL TYPE  PRIMITIVE        EXPONENT          CONTRACTION COEFFICIENT(S)

 C         

      1   S       1          3047.5248800    0.001834737132
      1   S       2           457.3695180    0.014037322813
      1   S       3           103.9486850    0.068842622264
      1   S       4            29.2101553    0.232184443216
      1   S       5             9.2866630    0.467941348435
      1   S       6             3.1639270    0.362311985337

      2   L       7             7.8682723   -0.119332419775    0.068999066591
      2   L       8             1.8812885   -0.160854151696    0.316423960957
      2   L       9             0.5442493    1.143456437840    0.744308290898

      3   L      10             0.1687145    1.000000000000    1.000000000000

      4   D      11             0.8000000    1.000000000000

 C         

      5   S      12          3047.5248800    0.001834737132
      5   S      13           457.3695180    0.014037322813
      5   S      14           103.9486850    0.068842622264
      5   S      15            29.2101553    0.232184443216
      5   S      16             9.2866630    0.467941348435
      5   S      17             3.1639270    0.362311985337

      6   L      18             7.8682723   -0.119332419775    0.068999066591
      6   L      19             1.8812885   -0.160854151696    0.316423960957
      6   L      20             0.5442493    1.143456437840    0.744308290898

      7   L      21             0.1687145    1.000000000000    1.000000000000

      8   D      22             0.8000000    1.000000000000

 C         

      9   S      23          3047.5248800    0.001834737132
      9   S      24           457.3695180    0.014037322813
      9   S      25           103.9486850    0.068842622264
      9   S      26            29.2101553    0.232184443216
      9   S      27             9.2866630    0.467941348435
      9   S      28             3.1639270    0.362311985337

     10   L      29             7.8682723   -0.119332419775    0.068999066591
     10   L      30             1.8812885   -0.160854151696    0.316423960957
     10   L      31             0.5442493    1.143456437840    0.744308290898

     11   L      32             0.1687145    1.000000000000    1.000000000000

     12   D      33             0.8000000    1.000000000000

 H         

     13   S      34            18.7311370    0.033494604338
     13   S      35             2.8253944    0.234726953484
     13   S      36             0.6401217    0.813757326146

     14   S      37             0.1612778    1.000000000000

 H         

     15   S      38            18.7311370    0.033494604338
     15   S      39             2.8253944    0.234726953484
     15   S      40             0.6401217    0.813757326146

     16   S      41             0.1612778    1.000000000000

 H         

     17   S      42            18.7311370    0.033494604338
     17   S      43             2.8253944    0.234726953484
     17   S      44             0.6401217    0.813757326146

     18   S      45             0.1612778    1.000000000000

 H         

     21   S      46            18.7311370    0.033494604338
     21   S      47             2.8253944    0.234726953484
     21   S      48             0.6401217    0.813757326146

     22   S      49             0.1612778    1.000000000000

 H         

     23   S      50            18.7311370    0.033494604338
     23   S      51             2.8253944    0.234726953484
     23   S      52             0.6401217    0.813757326146

     24   S      53             0.1612778    1.000000000000

 TOTAL NUMBER OF BASIS SET SHELLS             =   24
 NUMBER OF CARTESIAN GAUSSIAN BASIS FUNCTIONS =   57
 NUMBER OF ELECTRONS                          =   24
 CHARGE OF MOLECULE                           =    0
 SPIN MULTIPLICITY                            =    1
 NUMBER OF OCCUPIED ORBITALS (ALPHA)          =   12
 NUMBER OF OCCUPIED ORBITALS (BETA )          =   12
 TOTAL NUMBER OF ATOMS                        =    9
 THE NUCLEAR REPULSION ENERGY IS       70.8529312776

 SELECTED MURRAY-HANDY-LAMING RADIAL GRID

 LEGACY BECKE'S FUZZY CELL METHOD

 SELECTED ORIGINAL BECKE'S PARTITION FUNCTION

     LEBEDEV GRID-BASED DFT OPTIONS
     ------------------------------
     DFTTYP=B3LYP   
     NRAD  =      96     NLEB  =     590
     NRAD0 =      24     NLEB0 =     110
     SWOFF =    5.00E-03 (PURE SCF -> DFT)
     SWITCH=    3.00E-04 (COARSE -> TIGHT GRID)
     THRESH=    0.00E+00 GTHRE=    1.00E+00

 GRIMME'S EMPIRICAL DISPERSION CORRECTION= F

     $CONTRL OPTIONS
     ---------------
 SCFTYP=RHF          RUNTYP=OPTIMIZE     EXETYP=RUN     
 MPLEVL=       0     CITYP =NONE         CCTYP =NONE         VBTYP =NONE    
 DFTTYP=B3LYP        TDDFT =NONE    
 MULT  =       1     ICHARG=       0     NZVAR =       0     COORD =UNIQUE  
 PP    =NONE         RELWFN=NONE         LOCAL =NONE         NUMGRD=       F
 ISPHER=      -1     NOSYM =       0     MAXIT =     200     UNITS =ANGS    
 PLTORB=       F     MOLPLT=       F     AIMPAC=       F     FRIEND=        
 NPRINT=       7     IREST =       0     GEOM  =INPUT   
 NORMF =       0     NORMP =       0     ITOL  =      20     ICUT  =       9
 INTTYP=BEST         GRDTYP=BEST         QMTTOL= 1.0E-06

     $SYSTEM OPTIONS
     ---------------
  REPLICATED MEMORY=   250000000 WORDS (ON EVERY NODE).
 DISTRIBUTED MEMDDI=           0 MILLION WORDS IN AGGREGATE,
 MEMDDI DISTRIBUTED OVER   1 PROCESSORS IS           0 WORDS/PROCESSOR.
 TOTAL MEMORY REQUESTED ON EACH PROCESSOR=   250000000 WORDS.
 TIMLIM=        2879.00 MINUTES, OR       2.0 DAYS.
 PARALL= F  BALTYP=  DLB     KDIAG=    0  COREFL= F
 MXSEQ2=     300 MXSEQ3=     150  mem10=         0

          ----------------
          PROPERTIES INPUT
          ----------------

     MOMENTS            FIELD           POTENTIAL          DENSITY
 IEMOM =       1   IEFLD =       0   IEPOT =       0   IEDEN =       0
 WHERE =COMASS     WHERE =NUCLEI     WHERE =NUCLEI     WHERE =NUCLEI  
 OUTPUT=BOTH       OUTPUT=BOTH       OUTPUT=BOTH       OUTPUT=BOTH    
 IEMINT=       0   IEFINT=       0                     IEDINT=       0
                                                       MORB  =       0
          EXTRAPOLATION IN EFFECT
          DIIS IN EFFECT
 ORBITAL PRINTING OPTION: NPREO=     1    57     2     1

     -------------------------------
     INTEGRAL TRANSFORMATION OPTIONS
     -------------------------------
     NWORD  =            0
     CUTOFF = 1.0E-09     MPTRAN =       0
     DIRTRF =       T     AOINTS =DUP     

          ----------------------
          INTEGRAL INPUT OPTIONS
          ----------------------
 NOPK  =       1 NORDER=       0 SCHWRZ=       T

     ------------------------------------------
     THE POINT GROUP IS CS , NAXIS= 0, ORDER= 2
     ------------------------------------------

     DIMENSIONS OF THE SYMMETRY SUBSPACES ARE
 A'  =   43     A'' =   14

 ..... DONE SETTING UP THE RUN .....
 STEP CPU TIME =     0.01 TOTAL CPU TIME =          0.0 (      0.0 MIN)
 TOTAL WALL CLOCK TIME=          0.0 SECONDS, CPU UTILIZATION IS    50.00%


          -----------------------------
          STATIONARY POINT LOCATION RUN
          -----------------------------

 OBTAINING INITIAL HESSIAN, HESS=GUESS   
 CARTESIAN COORDINATE OPTIMIZATION USING BADGER'S RULE FORCE CONSTANT GUESS

          PARAMETERS CONTROLLING GEOMETRY SEARCH ARE
          METHOD =QA                  UPHESS =BFGS    
          NNEG   =         0          NFRZ   =         0
          NSTEP  =       999          IFOLOW =         1
          HESS   =GUESS               RESTAR =         F
          IHREP  =         0          HSSEND =         T
          NPRT   =         0          NPUN   =         0
          OPTTOL = 5.000E-04          RMIN   = 1.500E-03
          RMAX   = 1.000E-01          RLIM   = 7.000E-02
          DXMAX  = 3.000E-01          PURIFY =         F
          MOVIE  =         F          TRUPD  =         T
          TRMAX  = 5.000E-01          TRMIN  = 5.000E-02
          ITBMAT =         5          STPT   =         F
          STSTEP = 1.000E-02          PROJCT=          T

 BEGINNING GEOMETRY SEARCH POINT NSERCH=   0 ...

 COORDINATES OF SYMMETRY UNIQUE ATOMS (ANGS)
   ATOM   CHARGE       X              Y              Z
 ------------------------------------------------------------
 C           6.0   0.7900000000   0.9900000000   0.0000000000
 C           6.0  -0.3600000000   0.3100000000   0.0000000000
 C           6.0  -0.4200000000  -1.1900000000   0.0000000000
 H           1.0   1.7500000000   0.4800000000   0.0000000000
 H           1.0   0.7900000000   2.0700000000   0.0000000000
 H           1.0  -1.3000000000   0.8400000000   0.0000000000
 H           1.0   0.0600000000  -1.6000000000   0.8900000000
 H           1.0  -1.4600000000  -1.5200000000   0.0000000000
 COORDINATES OF ALL ATOMS ARE (ANGS)
   ATOM   CHARGE       X              Y              Z
 ------------------------------------------------------------
 C           6.0   0.7900000000   0.9900000000   0.0000000000
 C           6.0  -0.3600000000   0.3100000000   0.0000000000
 C           6.0  -0.4200000000  -1.1900000000   0.0000000000
 H           1.0   1.7500000000   0.4800000000   0.0000000000
 H           1.0   0.7900000000   2.0700000000   0.0000000000
 H           1.0  -1.3000000000   0.8400000000   0.0000000000
 H           1.0   0.0600000000  -1.6000000000  -0.8900000000
 H           1.0   0.0600000000  -1.6000000000   0.8900000000
 H           1.0  -1.4600000000  -1.5200000000   0.0000000000

          ********************
          1 ELECTRON INTEGRALS
          ********************
 ...... END OF ONE-ELECTRON INTEGRALS ......
 STEP CPU TIME =     0.01 TOTAL CPU TIME =          0.0 (      0.0 MIN)
 TOTAL WALL CLOCK TIME=          0.0 SECONDS, CPU UTILIZATION IS    50.00%

          -------------
          GUESS OPTIONS
          -------------
          GUESS =HUCKEL            NORB  =       0          NORDER=       0
          MIX   =       F          PRTMO =       F          PUNMO =       F
          TOLZ  = 1.0E-08          TOLE  = 1.0E-05
          SYMDEN=       F          PURIFY=       F

 INITIAL GUESS ORBITALS GENERATED BY HUCKEL   ROUTINE.
 HUCKEL GUESS REQUIRES     32010 WORDS.

 SYMMETRIES FOR INITIAL GUESS ORBITALS FOLLOW.   BOTH SET(S).
    12 ORBITALS ARE OCCUPIED (    3 CORE ORBITALS).
     4=A'       5=A'       6=A'       7=A'       8=A''      9=A'      10=A'  
    11=A'      12=A''     13=A''     14=A'      15=A'      16=A''     17=A'  
    18=A'      19=A'      20=A'      21=A'      22=A'  
 ...... END OF INITIAL ORBITAL SELECTION ......
 STEP CPU TIME =     0.01 TOTAL CPU TIME =          0.0 (      0.0 MIN)
 TOTAL WALL CLOCK TIME=          0.1 SECONDS, CPU UTILIZATION IS    50.00%

                    ----------------------
                    AO INTEGRAL TECHNOLOGY
                    ----------------------
     S,P,L SHELL ROTATED AXIS INTEGRALS, REPROGRAMMED BY
        KAZUYA ISHIMURA (IMS) AND JOSE SIERRA (SYNSTAR).
     S,P,D,L SHELL ROTATED AXIS INTEGRALS PROGRAMMED BY
        KAZUYA ISHIMURA (INSTITUTE FOR MOLECULAR SCIENCE).
     S,P,D,F,G SHELL TO TOTAL QUARTET ANGULAR MOMENTUM SUM 5,
        ERIC PROGRAM BY GRAHAM FLETCHER (ELORET AND NASA ADVANCED
        SUPERCOMPUTING DIVISION, AMES RESEARCH CENTER).
     S,P,D,F,G,L SHELL GENERAL RYS QUADRATURE PROGRAMMED BY
        MICHEL DUPUIS (PACIFIC NORTHWEST NATIONAL LABORATORY).

          --------------------
          2 ELECTRON INTEGRALS
          --------------------

 DIRECT SCF METHOD SKIPS INTEGRAL STORAGE ON DISK.
 DIRECT TRANSFORMATION SKIPS AO INTEGRAL STORAGE ON DISK.
  ...... END OF TWO-ELECTRON INTEGRALS .....
 STEP CPU TIME =     0.00 TOTAL CPU TIME =          0.0 (      0.0 MIN)
 TOTAL WALL CLOCK TIME=          0.1 SECONDS, CPU UTILIZATION IS    42.86%

          --------------------------
             R-B3LYP SCF CALCULATION
          --------------------------

     NUCLEAR ENERGY =        70.8529312776
     MAXIT =  200     NPUNCH=    2
     EXTRAP=T  DAMP=F  SHIFT=F  RSTRCT=F  DIIS=T  DEM=F  SOSCF=F
         DENSITY MATRIX CONVERGENCE THRESHOLD=  2.00E-05
     COARSE -> FINE DFT GRID SWITCH THRESHOLD=  3.00E-04 (SWITCH IN $DFT)
                   HF -> DFT SWITCH THRESHOLD=  5.00E-03 (SWOFF IN $DFT)
     MEMORY REQUIRED FOR RHF ITERS=    668725 WORDS.

 DIRECT SCF CALCULATION, SCHWRZ=T   FDIFF=T,  DIRTHR=  0.00E+00 NITDIR=10
 SCHWARZ INEQUALITY OVERHEAD:      1653 INTEGRALS, T=        0.00

 DFT CODE IS SWITCHING FROM THE FINE GRID NRAD= 96,  NLEB=  590
                      TO THE COARSE GRID NRAD0= 24, NLEB0=  110

     EXCHANGE FUNCTIONAL   =B88&HFX   
     CORRELATION FUNCTIONAL=LYP88&VWN5
     DFT THRESHOLD         =.785E-08
     GRID CHANGE THRESHOLD =.300E-03
 FOR AN EULER-MACLAURIN QUADRATURE USING  96 RADIAL POINTS:
 SMALLEST GAUSSIAN PRIMITIVE EXPONENT=        0.1612777588 OF TYPE -S-
 ON ATOM NUMBER   4 HAS RADIAL NORMALIZATION=  1.000000
  LARGEST GAUSSIAN PRIMITIVE EXPONENT=     3047.5248800000 OF TYPE -S-
 ON ATOM NUMBER   1 HAS RADIAL NORMALIZATION=  1.000000
 DFT IS SWITCHED OFF, PERFORMING PURE SCF UNTIL SWOFF THRESHOLD IS REACHED.

                                                                                   NONZERO     BLOCKS
 ITER EX DEM     TOTAL ENERGY        E CHANGE  DENSITY CHANGE    DIIS ERROR      INTEGRALS    SKIPPED
          * * *   INITIATING DIIS PROCEDURE   * * *
   1  0  0     -116.7948063098  -116.7948063098   0.129868436   0.392743473         718964       1235
   2  1  0     -117.0495906006    -0.2547842908   0.082011560   0.074862402         718498       1441
   3  2  0     -117.0638737628    -0.0142831622   0.020937284   0.025062119         717679       1706
   4  3  0     -117.0669299104    -0.0030561476   0.007352063   0.005829957         715617       2068
   5  4  0     -117.0671186579    -0.0001887475   0.003184776   0.001914997         713364       2327
 CONVERGED TO SWOFF, SO DFT CALCULATION IS NOW SWITCHED ON.
          * * *   INITIATING DIIS PROCEDURE   * * *
   6  5  0     -117.8015753059    -0.7344566480   0.053725597   0.088670414         718972       1232
   7  6  0     -117.8126734037    -0.0110980978   0.030069165   0.026370340         717914       1651
   8  7  0     -117.8130247960    -0.0003513922   0.015530264   0.024841090         716359       1866
   9  8  0     -117.8146881654    -0.0016633694   0.004195884   0.003560947         715039       2078
  10  9  0     -117.8147251837    -0.0000370183   0.000834299   0.000629932         708070       3005
  11 10  0     -117.8147271384    -0.0000019547   0.000135178   0.000098966         702988       3594
 DFT CODE IS SWITCHING BACK TO THE FINE GRID
          * * *   INITIATING DIIS PROCEDURE   * * *
  12 11  0     -117.8160700910    -0.0013429526   0.001018064   0.000550388         718995       1217
  13 12  0     -117.8160725379    -0.0000024469   0.000117825   0.000122727         708603       3004
  14 13  0     -117.8160725602    -0.0000000223   0.000063481   0.000059862         696469       4294
  15 14  0     -117.8160725703    -0.0000000100   0.000034433   0.000020623         684523       5220
  16 15  0     -117.8160725725    -0.0000000023   0.000010806   0.000007790         673016       6399
  17 16  0     -117.8160725729    -0.0000000004   0.000001860   0.000002030         661337       7284

          -----------------
          DENSITY CONVERGED
          -----------------
     TIME TO FORM FOCK OPERATORS=       6.2 SECONDS (       0.4 SEC/ITER)
     FOCK TIME ON FIRST ITERATION=       0.1, LAST ITERATION=       0.9
     TIME TO SOLVE SCF EQUATIONS=       0.1 SECONDS (       0.0 SEC/ITER)

 FINAL R-B3LYP ENERGY IS     -117.8160725729 AFTER  17 ITERATIONS
 DFT EXCHANGE + CORRELATION ENERGY =       -14.8770999697
 TOTAL ELECTRON NUMBER             =        23.9999854799

          ------------
          EIGENVECTORS
          ------------

                      1          2          3          4          5
                  -10.1802   -10.1725   -10.1667    -0.7764    -0.6754
                     A'         A'         A'         A'         A'  
    1  C  1  S    0.031480  -0.001621   0.992202  -0.114927   0.135928
    2  C  1  S    0.001005  -0.000249   0.049337   0.219078  -0.264635
    3  C  1  X    0.000313   0.000007   0.000009  -0.071755   0.034988
    4  C  1  Y    0.000210   0.000099  -0.000006  -0.051452  -0.005035
    5  C  1  Z    0.000000   0.000000   0.000000   0.000000   0.000000
    6  C  1  S    0.004540   0.000523  -0.013432   0.167697  -0.218922
    7  C  1  X   -0.001310  -0.000581   0.000995  -0.006782  -0.007731
    8  C  1  Y   -0.001598  -0.000388   0.000599  -0.008820  -0.006758
    9  C  1  Z    0.000000   0.000000   0.000000   0.000000   0.000000
   10  C  1 XX   -0.000599   0.000116  -0.009293   0.004879  -0.003215
   11  C  1 YY   -0.000499   0.000046  -0.009399   0.002111  -0.002265
   12  C  1 ZZ   -0.000438  -0.000087  -0.009791  -0.012304   0.013487
   13  C  1 XY   -0.000033   0.000024   0.000119   0.004398   0.001692
   14  C  1 XZ    0.000000   0.000000   0.000000   0.000000   0.000000
   15  C  1 YZ    0.000000   0.000000   0.000000   0.000000   0.000000
   16  C  2  S    0.992131  -0.016699  -0.031991  -0.153822   0.034174
   17  C  2  S    0.049261  -0.001007  -0.002106   0.298512  -0.068667
   18  C  2  X   -0.000005  -0.000013  -0.000364   0.052340  -0.100741
   19  C  2  Y   -0.000156   0.000188  -0.000184  -0.014762  -0.163509
   20  C  2  Z    0.000000   0.000000   0.000000   0.000000   0.000000
   21  C  2  S   -0.014595   0.004043   0.005014   0.197205  -0.051624
   22  C  2  X   -0.001207  -0.000597   0.001846  -0.010636  -0.015583
   23  C  2  Y    0.000927  -0.002586   0.001146  -0.001122  -0.041034
   24  C  2  Z    0.000000   0.000000   0.000000   0.000000   0.000000
   25  C  2 XX   -0.009112   0.000030   0.000036   0.002422  -0.008475
   26  C  2 YY   -0.009273  -0.000274   0.000035   0.003691   0.012516
   27  C  2 ZZ   -0.009573   0.000018   0.000178  -0.015746   0.003019
   28  C  2 XY    0.000136  -0.000066  -0.000038   0.001897  -0.004692
   29  C  2 XZ    0.000000   0.000000   0.000000   0.000000   0.000000
   30  C  2 YZ    0.000000   0.000000   0.000000   0.000000   0.000000
   31  C  3  S    0.016526   0.992753   0.001065  -0.117275  -0.148776
   32  C  3  S    0.000680   0.050122  -0.000053   0.220765   0.291247
   33  C  3  X    0.000084   0.000002  -0.000037   0.007204  -0.018275
   34  C  3  Y   -0.000282   0.000075  -0.000039   0.059882  -0.033343
   35  C  3  Z    0.000000   0.000000   0.000000   0.000000   0.000000
   36  C  3  S    0.003268  -0.017359  -0.000166   0.191603   0.266647
   37  C  3  X   -0.000099   0.000071   0.000054   0.009022  -0.010571
   38  C  3  Y    0.001928  -0.001141   0.000167   0.011310  -0.019524
   39  C  3  Z    0.000000   0.000000   0.000000   0.000000   0.000000
   40  C  3 XX   -0.000267  -0.009163   0.000008  -0.001867   0.003001
   41  C  3 YY   -0.000640  -0.009238   0.000084   0.005884  -0.007487
   42  C  3 ZZ   -0.000184  -0.009144  -0.000039  -0.001845   0.002808
   43  C  3 XY    0.000052   0.000001   0.000018   0.001269  -0.002155
   44  C  3 XZ    0.000000   0.000000   0.000000   0.000000   0.000000
   45  C  3 YZ    0.000000   0.000000   0.000000   0.000000   0.000000
   46  H  4  S   -0.000135  -0.000082  -0.000333   0.057824  -0.083044
   47  H  4  S   -0.000328   0.000239   0.002178   0.010147  -0.020154
   48  H  5  S   -0.000037  -0.000014  -0.000341   0.054074  -0.098554
   49  H  5  S    0.000243   0.000358   0.002191   0.010010  -0.030792
   50  H  6  S   -0.000365  -0.000131  -0.000050   0.077838  -0.020860
   51  H  6  S    0.001911  -0.000098  -0.000065   0.010263  -0.003012
   52  H  7  S   -0.000163  -0.000047  -0.000026   0.064325   0.105262
   53  H  7  S    0.000418   0.002705   0.000069   0.009084   0.030541
   54  H  8  S   -0.000163  -0.000047  -0.000026   0.064325   0.105262
   55  H  8  S    0.000418   0.002705   0.000069   0.009084   0.030541
   56  H  9  S   -0.000101  -0.000028   0.000012   0.062657   0.113771
   57  H  9  S   -0.000118   0.002733   0.000214   0.013765   0.032717

                      6          7          8          9         10
                   -0.5467    -0.4576    -0.4130    -0.4094    -0.3602
                     A'         A'         A'         A''        A'  
    1  C  1  S    0.091640  -0.016638   0.000401   0.000000   0.027761
    2  C  1  S   -0.184268   0.035241  -0.002173   0.000000  -0.058457
    3  C  1  X   -0.185553   0.030289   0.339874   0.000000   0.172980
    4  C  1  Y   -0.044626   0.324638  -0.073454   0.000000   0.213178
    5  C  1  Z    0.000000   0.000000   0.000000   0.065540   0.000000
    6  C  1  S   -0.175049   0.035910   0.029541   0.000000  -0.089046
    7  C  1  X   -0.066308   0.007197   0.122734   0.000000   0.071143
    8  C  1  Y   -0.018567   0.125080  -0.032024   0.000000   0.077463
    9  C  1  Z    0.000000   0.000000   0.000000   0.037310   0.000000
   10  C  1 XX    0.004349  -0.004960   0.008134   0.000000  -0.003042
   11  C  1 YY   -0.008707   0.009558  -0.000198   0.000000   0.012836
   12  C  1 ZZ    0.008277  -0.001307  -0.000360   0.000000   0.001634
   13  C  1 XY    0.010726  -0.005494  -0.012531   0.000000  -0.004154
   14  C  1 XZ    0.000000   0.000000   0.000000  -0.003835   0.000000
   15  C  1 YZ    0.000000   0.000000   0.000000  -0.003702   0.000000
   16  C  2  S   -0.121880   0.033690  -0.000602   0.000000  -0.000970
   17  C  2  S    0.250404  -0.074129   0.003444   0.000000   0.000586
   18  C  2  X   -0.162791  -0.241278  -0.185381   0.000000  -0.234185
   19  C  2  Y    0.049854   0.139816  -0.228039   0.000000  -0.141595
   20  C  2  Z    0.000000   0.000000   0.000000   0.145996   0.000000
   21  C  2  S    0.228259  -0.048942   0.012768   0.000000   0.031730
   22  C  2  X   -0.068637  -0.060314  -0.063693   0.000000  -0.066766
   23  C  2  Y    0.010596   0.042506  -0.086084   0.000000  -0.028799
   24  C  2  Z    0.000000   0.000000   0.000000   0.071154   0.000000
   25  C  2 XX    0.002420   0.003684   0.004746   0.000000  -0.004332
   26  C  2 YY   -0.005437   0.006786  -0.000713   0.000000   0.008383
   27  C  2 ZZ   -0.010453   0.001579  -0.000741   0.000000   0.000151
   28  C  2 XY   -0.010517   0.000735  -0.003267   0.000000  -0.017762
   29  C  2 XZ    0.000000   0.000000   0.000000   0.002464   0.000000
   30  C  2 YZ    0.000000   0.000000   0.000000  -0.009616   0.000000
   31  C  3  S    0.051485  -0.012832   0.007186   0.000000  -0.007154
   32  C  3  S   -0.102495   0.026660  -0.010368   0.000000   0.017433
   33  C  3  X   -0.049735  -0.195070  -0.199238   0.000000   0.342395
   34  C  3  Y    0.148409  -0.139366   0.213056   0.000000   0.129922
   35  C  3  Z    0.000000   0.000000   0.000000   0.431538   0.000000
   36  C  3  S   -0.116364   0.023845  -0.033842   0.000000   0.033792
   37  C  3  X   -0.019672  -0.098420  -0.089082   0.000000   0.154274
   38  C  3  Y    0.051742  -0.060415   0.096260   0.000000   0.067755
   39  C  3  Z    0.000000   0.000000   0.000000   0.199601   0.000000
   40  C  3 XX   -0.003789   0.011504   0.003952   0.000000  -0.019630
   41  C  3 YY    0.013327  -0.008403   0.006649   0.000000   0.005545
   42  C  3 ZZ   -0.007593  -0.001812  -0.014086   0.000000   0.010587
   43  C  3 XY   -0.001196  -0.002346   0.003218   0.000000  -0.017656
   44  C  3 XZ    0.000000   0.000000   0.000000   0.018354   0.000000
   45  C  3 YZ    0.000000   0.000000   0.000000  -0.011450   0.000000
   46  H  4  S   -0.150054  -0.049826   0.205796   0.000000   0.011136
   47  H  4  S   -0.080986  -0.033492   0.162833   0.000000   0.025712
   48  H  5  S   -0.103731   0.199538  -0.041458   0.000000   0.119394
   49  H  5  S   -0.051765   0.140510  -0.033753   0.000000   0.125132
   50  H  6  S    0.187053   0.122535   0.036576   0.000000   0.097095
   51  H  6  S    0.093797   0.107877   0.035816   0.000000   0.090972
   52  H  7  S   -0.081780  -0.006279  -0.110566  -0.221238   0.081191
   53  H  7  S   -0.042484  -0.003850  -0.081772  -0.177752   0.075464
   54  H  8  S   -0.081780  -0.006279  -0.110566   0.221238   0.081191
   55  H  8  S   -0.042484  -0.003850  -0.081772   0.177752   0.075464
   56  H  9  S   -0.041111   0.143376   0.071110   0.000000  -0.249203
   57  H  9  S   -0.018539   0.097190   0.064259   0.000000  -0.234811

                     11         12         13         14         15
                   -0.3391    -0.2432     0.0244     0.1150     0.1362
                     A'         A''        A''        A'         A'  
    1  C  1  S   -0.004535   0.000000   0.000000  -0.050072  -0.000495
    2  C  1  S    0.009951   0.000000   0.000000   0.098753   0.023417
    3  C  1  X   -0.140690   0.000000   0.000000   0.052313   0.069332
    4  C  1  Y    0.213728   0.000000   0.000000   0.105834  -0.118932
    5  C  1  Z    0.000000   0.403979   0.389543   0.000000   0.000000
    6  C  1  S    0.011143   0.000000   0.000000   0.566203  -0.092161
    7  C  1  X   -0.036062   0.000000   0.000000   0.355157   0.217500
    8  C  1  Y    0.072810   0.000000   0.000000   0.354927  -0.260347
    9  C  1  Z    0.000000   0.298519   0.596104   0.000000   0.000000
   10  C  1 XX   -0.020842   0.000000   0.000000   0.011382  -0.001717
   11  C  1 YY    0.020026   0.000000   0.000000  -0.017528   0.011059
   12  C  1 ZZ   -0.000375   0.000000   0.000000  -0.001110  -0.002404
   13  C  1 XY    0.013444   0.000000   0.000000  -0.002637  -0.000703
   14  C  1 XZ    0.000000  -0.013169   0.021075   0.000000   0.000000
   15  C  1 YZ    0.000000  -0.007049   0.011031   0.000000   0.000000
   16  C  2  S   -0.007856   0.000000   0.000000  -0.051312   0.043909
   17  C  2  S    0.024057   0.000000   0.000000   0.084592  -0.020406
   18  C  2  X    0.163935   0.000000   0.000000  -0.170164   0.125267
   19  C  2  Y   -0.283362   0.000000   0.000000   0.085699  -0.043486
   20  C  2  Z    0.000000   0.374604  -0.421261   0.000000   0.000000
   21  C  2  S    0.008346   0.000000   0.000000   0.948870  -0.742679
   22  C  2  X    0.063599   0.000000   0.000000  -0.271253   0.326186
   23  C  2  Y   -0.077222   0.000000   0.000000   0.332238   0.112137
   24  C  2  Z    0.000000   0.270596  -0.569880   0.000000   0.000000
   25  C  2 XX   -0.020544   0.000000   0.000000  -0.005508   0.014294
   26  C  2 YY    0.014282   0.000000   0.000000   0.005287   0.007381
   27  C  2 ZZ   -0.000018   0.000000   0.000000  -0.004738  -0.002457
   28  C  2 XY    0.017954   0.000000   0.000000   0.013284  -0.014693
   29  C  2 XZ    0.000000   0.013349   0.023074   0.000000   0.000000
   30  C  2 YZ    0.000000   0.012912   0.009966   0.000000   0.000000
   31  C  3  S   -0.023298   0.000000   0.000000  -0.082377  -0.113869
   32  C  3  S    0.049588   0.000000   0.000000   0.100235   0.121561
   33  C  3  X   -0.077313   0.000000   0.000000  -0.124809   0.159560
   34  C  3  Y    0.291954   0.000000   0.000000  -0.111415  -0.137506
   35  C  3  Z    0.000000  -0.126046  -0.033475   0.000000   0.000000
   36  C  3  S    0.117588   0.000000   0.000000   1.359600   1.986659
   37  C  3  X   -0.047725   0.000000   0.000000  -0.389063   0.447960
   38  C  3  Y    0.155632   0.000000   0.000000  -0.361052  -0.295522
   39  C  3  Z    0.000000  -0.073906  -0.190265   0.000000   0.000000
   40  C  3 XX   -0.003956   0.000000   0.000000  -0.019343  -0.002242
   41  C  3 YY    0.007960   0.000000   0.000000   0.000176  -0.007121
   42  C  3 ZZ   -0.010660   0.000000   0.000000  -0.000941  -0.018396
   43  C  3 XY    0.007971   0.000000   0.000000  -0.011344   0.009023
   44  C  3 XZ    0.000000  -0.005939   0.009988   0.000000   0.000000
   45  C  3 YZ    0.000000   0.019985  -0.026830   0.000000   0.000000
   46  H  4  S   -0.170663   0.000000   0.000000   0.027303   0.003436
   47  H  4  S   -0.193991   0.000000   0.000000  -0.317103  -0.447770
   48  H  5  S    0.168112   0.000000   0.000000  -0.068631   0.013133
   49  H  5  S    0.170497   0.000000   0.000000  -0.843610   0.388253
   50  H  6  S   -0.203604   0.000000   0.000000  -0.035695   0.088838
   51  H  6  S   -0.213762   0.000000   0.000000  -0.998010   0.838909
   52  H  7  S   -0.081283   0.096787  -0.084301   0.016671  -0.048104
   53  H  7  S   -0.090894   0.103439  -0.358732  -0.391173  -1.220505
   54  H  8  S   -0.081283  -0.096787   0.084301   0.016671  -0.048104
   55  H  8  S   -0.090894  -0.103439   0.358732  -0.391173  -1.220505
   56  H  9  S    0.013574   0.000000   0.000000  -0.077391   0.036060
   57  H  9  S   -0.004669   0.000000   0.000000  -1.208361  -0.179884

                     16         17         18         19         20
                    0.1550     0.1909     0.1967     0.2081     0.2921
                     A'         A'         A''        A'         A'  
    1  C  1  S   -0.114528   0.037302   0.000000   0.042515   0.029621
    2  C  1  S    0.160444  -0.043260   0.000000  -0.061243   0.003183
    3  C  1  X    0.236996   0.099760   0.000000   0.076301  -0.116971
    4  C  1  Y   -0.011229  -0.325367   0.000000  -0.042504   0.145453
    5  C  1  Z    0.000000   0.000000   0.133937   0.000000   0.000000
    6  C  1  S    1.861663  -0.864786   0.000000  -0.411875  -0.890972
    7  C  1  X    0.576238   0.537222   0.000000   0.419604  -0.196793
    8  C  1  Y   -0.022292  -0.926730   0.000000  -0.243065   1.605315
    9  C  1  Z    0.000000   0.000000   0.223077   0.000000   0.000000
   10  C  1 XX   -0.014833  -0.007284   0.000000   0.003191  -0.014138
   11  C  1 YY    0.000095   0.003131   0.000000   0.005507   0.008435
   12  C  1 ZZ   -0.006761   0.005925   0.000000   0.002172   0.006987
   13  C  1 XY    0.009356   0.005048   0.000000   0.011877   0.020669
   14  C  1 XZ    0.000000   0.000000   0.011435   0.000000   0.000000
   15  C  1 YZ    0.000000   0.000000   0.007713   0.000000   0.000000
   16  C  2  S    0.013727  -0.038003   0.000000  -0.115008  -0.067580
   17  C  2  S   -0.042255   0.038979   0.000000   0.176725   0.063395
   18  C  2  X    0.018282   0.021218   0.000000  -0.148577   0.201337
   19  C  2  Y   -0.122234  -0.110269   0.000000  -0.028627  -0.333565
   20  C  2  Z    0.000000   0.000000  -0.137604   0.000000   0.000000
   21  C  2  S   -0.036995   0.703070   0.000000   2.085294   1.871626
   22  C  2  X   -0.023121   0.158277   0.000000  -0.681462   1.274658
   23  C  2  Y   -0.512525   0.034556   0.000000  -0.073522  -1.860920
   24  C  2  Z    0.000000   0.000000  -0.465843   0.000000   0.000000
   25  C  2 XX    0.012831   0.015315   0.000000   0.008280  -0.003134
   26  C  2 YY   -0.016367  -0.024397   0.000000  -0.009888   0.007054
   27  C  2 ZZ    0.003253   0.001000   0.000000  -0.007880  -0.004302
   28  C  2 XY   -0.000935   0.001227   0.000000  -0.018114   0.013668
   29  C  2 XZ    0.000000   0.000000   0.000223   0.000000   0.000000
   30  C  2 YZ    0.000000   0.000000  -0.012452   0.000000   0.000000
   31  C  3  S    0.057111   0.022460   0.000000   0.056790   0.053963
   32  C  3  S   -0.056429  -0.054968   0.000000  -0.064060   0.023217
   33  C  3  X    0.077422  -0.245957   0.000000   0.248086  -0.031258
   34  C  3  Y   -0.013450  -0.144795   0.000000  -0.137308  -0.125632
   35  C  3  Z    0.000000   0.000000   0.433621   0.000000   0.000000
   36  C  3  S   -1.055744  -0.054686   0.000000  -0.862836  -1.619913
   37  C  3  X    0.045198  -0.871855   0.000000   0.956667  -0.479382
   38  C  3  Y   -0.160693  -0.393738   0.000000  -0.749596  -1.754306
   39  C  3  Z    0.000000   0.000000   1.420941   0.000000   0.000000
   40  C  3 XX   -0.001469  -0.011609   0.000000   0.000344  -0.016458
   41  C  3 YY    0.006396   0.014984   0.000000   0.023069   0.036022
   42  C  3 ZZ    0.007017   0.000422   0.000000  -0.011606  -0.007698
   43  C  3 XY   -0.003587   0.003614   0.000000   0.002050   0.004279
   44  C  3 XZ    0.000000   0.000000  -0.011856   0.000000   0.000000
   45  C  3 YZ    0.000000   0.000000  -0.004620   0.000000   0.000000
   46  H  4  S   -0.104650  -0.019457   0.000000  -0.015898  -0.047050
   47  H  4  S   -1.668041  -0.770117   0.000000  -0.270621   1.215125
   48  H  5  S   -0.016650   0.046628   0.000000   0.040214   0.023360
   49  H  5  S   -0.742862   1.629665   0.000000   0.571728  -1.087386
   50  H  6  S    0.042709   0.009942   0.000000  -0.001566  -0.019925
   51  H  6  S    0.458563  -0.031029   0.000000  -1.464196   1.429574
   52  H  7  S    0.027486   0.012826   0.057615  -0.048040  -0.056650
   53  H  7  S    0.272104   0.396305   1.536920  -0.504355  -0.037649
   54  H  8  S    0.027486   0.012826  -0.057615  -0.048040  -0.056650
   55  H  8  S    0.272104   0.396305  -1.536920  -0.504355  -0.037649
   56  H  9  S   -0.026157  -0.063853   0.000000   0.040823  -0.086352
   57  H  9  S    0.416994  -1.165543   0.000000   1.255765  -0.436446

                     21         22         23         24         25
                    0.3478     0.5044     0.5351     0.5544     0.5901
                     A'         A'         A'         A''        A'  
    1  C  1  S   -0.075088  -0.002293   0.018279   0.000000  -0.008517
    2  C  1  S    0.017369  -0.222143  -0.154676   0.000000   0.326102
    3  C  1  X   -0.120320   0.473848  -0.085094   0.000000  -0.314853
    4  C  1  Y    0.004878   0.274436   0.295693   0.000000  -0.071236
    5  C  1  Z    0.000000   0.000000   0.000000  -0.637446   0.000000
    6  C  1  S    3.201256  -0.543632   0.196499   0.000000   0.319926
    7  C  1  X   -2.602387  -0.230877   0.599705   0.000000   0.362784
    8  C  1  Y   -1.340499  -0.318859  -0.262939   0.000000  -0.284524
    9  C  1  Z    0.000000   0.000000   0.000000   0.626925   0.000000
   10  C  1 XX   -0.022301  -0.035857  -0.055187   0.000000   0.019180
   11  C  1 YY    0.033225   0.001805   0.053157   0.000000   0.038925
   12  C  1 ZZ   -0.012259  -0.004208  -0.007230   0.000000  -0.011455
   13  C  1 XY   -0.018636  -0.030110   0.070530   0.000000   0.010986
   14  C  1 XZ    0.000000   0.000000   0.000000   0.047270   0.000000
   15  C  1 YZ    0.000000   0.000000   0.000000   0.019203   0.000000
   16  C  2  S    0.053434  -0.023523  -0.031596   0.000000   0.071164
   17  C  2  S    0.012923  -0.067626   0.016009   0.000000   0.267594
   18  C  2  X   -0.225694  -0.232161   0.062547   0.000000   0.065300
   19  C  2  Y   -0.214026  -0.327166   0.159650   0.000000   0.280659
   20  C  2  Z    0.000000   0.000000   0.000000  -0.640950   0.000000
   21  C  2  S   -2.755061   0.204575  -0.050260   0.000000  -0.343281
   22  C  2  X   -2.501398   0.882379   0.001805   0.000000  -0.643445
   23  C  2  Y   -1.788798   1.049240  -0.007205   0.000000  -0.540015
   24  C  2  Z    0.000000   0.000000   0.000000   0.348901   0.000000
   25  C  2 XX    0.013826  -0.049917   0.029625   0.000000   0.085076
   26  C  2 YY   -0.013011   0.030311  -0.100028   0.000000   0.126075
   27  C  2 ZZ    0.007836   0.009377   0.023367   0.000000  -0.072306
   28  C  2 XY    0.006496  -0.059915  -0.043879   0.000000   0.003489
   29  C  2 XZ    0.000000   0.000000   0.000000  -0.046311   0.000000
   30  C  2 YZ    0.000000   0.000000   0.000000  -0.026949   0.000000
   31  C  3  S    0.010788   0.008707   0.007309   0.000000  -0.021092
   32  C  3  S   -0.034341  -0.041328  -0.166450   0.000000   0.213729
   33  C  3  X   -0.104727  -0.273124  -0.321862   0.000000  -0.380267
   34  C  3  Y   -0.149008   0.207484  -0.603194   0.000000   0.676950
   35  C  3  Z    0.000000   0.000000   0.000000  -0.313731   0.000000
   36  C  3  S   -0.389447   0.558190   0.160312   0.000000  -0.295479
   37  C  3  X    0.684551   0.218122   0.531007   0.000000   0.926555
   38  C  3  Y   -0.733616  -0.163028   0.854742   0.000000  -0.876391
   39  C  3  Z    0.000000   0.000000   0.000000   0.765133   0.000000
   40  C  3 XX    0.007626   0.018898   0.051064   0.000000   0.060061
   41  C  3 YY    0.014709   0.050839  -0.041883   0.000000  -0.018409
   42  C  3 ZZ   -0.021685  -0.054179  -0.030347   0.000000  -0.036761
   43  C  3 XY   -0.020175   0.063897   0.041536   0.000000   0.001286
   44  C  3 XZ    0.000000   0.000000   0.000000  -0.051463   0.000000
   45  C  3 YZ    0.000000   0.000000   0.000000   0.021699   0.000000
   46  H  4  S    0.040355   0.028822  -0.358164   0.000000  -0.079375
   47  H  4  S    0.613978  -0.118019  -0.157082   0.000000  -0.268764
   48  H  5  S    0.146050   0.008573   0.225660   0.000000   0.110698
   49  H  5  S    0.256408   0.016873  -0.192663   0.000000   0.181382
   50  H  6  S   -0.015951   0.063350   0.191222   0.000000   0.381015
   51  H  6  S   -0.460920   0.046446  -0.106041   0.000000  -0.161616
   52  H  7  S   -0.049162  -0.199898  -0.051492   0.245374  -0.120729
   53  H  7  S   -0.346483   0.075027   0.037226   0.216662  -0.178180
   54  H  8  S   -0.049162  -0.199898  -0.051492  -0.245374  -0.120729
   55  H  8  S   -0.346483   0.075027   0.037226  -0.216662  -0.178180
   56  H  9  S   -0.027150   0.243213   0.308859   0.000000   0.146716
   57  H  9  S    0.009421  -0.141288  -0.016078   0.000000   0.178408

                     26         27         28         29         30
                    0.6197     0.6827     0.6840     0.7608     0.7825
                     A''        A''        A'         A'         A'  
    1  C  1  S    0.000000   0.000000  -0.087847  -0.023597  -0.020834
    2  C  1  S    0.000000   0.000000  -0.482010  -0.005559   0.384325
    3  C  1  X    0.000000   0.000000  -0.355259  -0.159446  -0.256619
    4  C  1  Y    0.000000   0.000000  -0.234190   0.098008  -0.333132
    5  C  1  Z    0.739993   0.431232   0.000000   0.000000   0.000000
    6  C  1  S    0.000000   0.000000   1.626446  -1.236347  -1.036729
    7  C  1  X    0.000000   0.000000   0.538108   0.234529   0.480214
    8  C  1  Y    0.000000   0.000000   0.308206   0.030011   0.594759
    9  C  1  Z   -0.778760  -0.914523   0.000000   0.000000   0.000000
   10  C  1 XX    0.000000   0.000000  -0.139361  -0.101446  -0.070895
   11  C  1 YY    0.000000   0.000000  -0.150534   0.017022   0.065734
   12  C  1 ZZ    0.000000   0.000000   0.095873   0.037062   0.019887
   13  C  1 XY    0.000000   0.000000  -0.007071  -0.050990  -0.041924
   14  C  1 XZ    0.005296   0.000804   0.000000   0.000000   0.000000
   15  C  1 YZ   -0.016729   0.025588   0.000000   0.000000   0.000000
   16  C  2  S    0.000000   0.000000   0.039731   0.026235   0.037040
   17  C  2  S    0.000000   0.000000  -0.511623  -0.275277   0.637405
   18  C  2  X    0.000000   0.000000  -0.323326  -0.586024  -0.280513
   19  C  2  Y    0.000000   0.000000  -0.179274   0.231569  -0.755023
   20  C  2  Z   -0.145964  -0.859356   0.000000   0.000000   0.000000
   21  C  2  S    0.000000   0.000000   0.603259   0.631274  -1.369859
   22  C  2  X    0.000000   0.000000  -0.260196   2.339810   0.880295
   23  C  2  Y    0.000000   0.000000   0.000476  -0.632515   1.686700
   24  C  2  Z   -0.049394   1.626447   0.000000   0.000000   0.000000
   25  C  2 XX    0.000000   0.000000   0.011534   0.050328   0.180707
   26  C  2 YY    0.000000   0.000000  -0.019212   0.013283   0.009142
   27  C  2 ZZ    0.000000   0.000000  -0.022632  -0.045576  -0.039489
   28  C  2 XY    0.000000   0.000000   0.077091  -0.051496   0.019590
   29  C  2 XZ    0.026677  -0.004087   0.000000   0.000000   0.000000
   30  C  2 YZ    0.005806   0.046950   0.000000   0.000000   0.000000
   31  C  3  S    0.000000   0.000000  -0.010083  -0.019517   0.052476
   32  C  3  S    0.000000   0.000000   0.051300   0.100782  -0.047485
   33  C  3  X    0.000000   0.000000  -0.119713   0.653080  -0.043250
   34  C  3  Y    0.000000   0.000000   0.065763   0.131549  -0.247446
   35  C  3  Z   -0.596213   0.367626   0.000000   0.000000   0.000000
   36  C  3  S    0.000000   0.000000  -0.066158  -0.308479   0.606914
   37  C  3  X    0.000000   0.000000   0.498166  -2.135952  -0.046818
   38  C  3  Y    0.000000   0.000000  -0.279054  -0.439807   1.400447
   39  C  3  Z    1.329507  -1.317174   0.000000   0.000000   0.000000
   40  C  3 XX    0.000000   0.000000   0.025906  -0.036493  -0.033498
   41  C  3 YY    0.000000   0.000000   0.005327  -0.038663   0.084759
   42  C  3 ZZ    0.000000   0.000000  -0.023996   0.064506   0.005521
   43  C  3 XY    0.000000   0.000000  -0.035386   0.076854  -0.010441
   44  C  3 XZ   -0.086604   0.052502   0.000000   0.000000   0.000000
   45  C  3 YZ    0.019597  -0.038879   0.000000   0.000000   0.000000
   46  H  4  S    0.000000   0.000000  -0.541763  -0.170634  -0.018853
   47  H  4  S    0.000000   0.000000  -0.234352   0.250358   0.190243
   48  H  5  S    0.000000   0.000000  -0.590686   0.228825   0.061404
   49  H  5  S    0.000000   0.000000  -0.147772   0.030821  -0.396046
   50  H  6  S    0.000000   0.000000  -0.112619   0.422038   0.373504
   51  H  6  S    0.000000   0.000000  -0.172656   0.926505  -0.028320
   52  H  7  S    0.280977  -0.203479  -0.084983  -0.054241   0.312235
   53  H  7  S    0.277504  -0.314452  -0.173851   0.406819   0.217033
   54  H  8  S   -0.280977   0.203479  -0.084983  -0.054241   0.312235
   55  H  8  S   -0.277504   0.314452  -0.173851   0.406819   0.217033
   56  H  9  S    0.000000   0.000000  -0.011662  -0.098187   0.174507
   57  H  9  S    0.000000   0.000000   0.235612  -1.107510   0.372820

                     31         32         33         34         35
                    0.8686     0.8839     0.8949     0.9280     0.9489
                     A'         A''        A'         A'         A'  
    1  C  1  S    0.002551   0.000000   0.013609   0.008822   0.024342
    2  C  1  S   -0.065647   0.000000   0.070289  -0.360485  -0.965893
    3  C  1  X    0.667414   0.000000  -0.086580  -0.104720  -0.443054
    4  C  1  Y   -0.831093   0.000000   0.120873   0.303130  -0.358087
    5  C  1  Z    0.000000  -0.084176   0.000000   0.000000   0.000000
    6  C  1  S    0.132188   0.000000  -1.005420   0.085922   1.843690
    7  C  1  X   -1.618461   0.000000   0.454095   0.776705   0.717486
    8  C  1  Y    2.240329   0.000000   0.319508  -1.012114   0.751479
    9  C  1  Z    0.000000   0.109927   0.000000   0.000000   0.000000
   10  C  1 XX   -0.083878   0.000000   0.023254  -0.078175  -0.067938
   11  C  1 YY    0.077425   0.000000  -0.016380   0.048866   0.030464
   12  C  1 ZZ    0.006904   0.000000  -0.004208  -0.012457  -0.103713
   13  C  1 XY    0.070336   0.000000  -0.056022   0.005624  -0.100996
   14  C  1 XZ    0.000000  -0.012370   0.000000   0.000000   0.000000
   15  C  1 YZ    0.000000   0.009294   0.000000   0.000000   0.000000
   16  C  2  S   -0.011377   0.000000  -0.025888   0.007874  -0.017661
   17  C  2  S   -0.159737   0.000000   0.559029  -0.578603  -0.423131
   18  C  2  X   -0.047324   0.000000  -0.722015   0.378499  -0.115710
   19  C  2  Y    0.320256   0.000000   0.348792  -0.246172   0.000476
   20  C  2  Z    0.000000  -0.001818   0.000000   0.000000   0.000000
   21  C  2  S    0.447974   0.000000  -0.618550   1.172297   1.045777
   22  C  2  X    0.472178   0.000000   2.064831  -0.559897   0.145251
   23  C  2  Y   -1.562347   0.000000  -0.655361   1.372685  -0.189464
   24  C  2  Z    0.000000  -0.099941   0.000000   0.000000   0.000000
   25  C  2 XX    0.034024   0.000000  -0.027333  -0.013976  -0.023230
   26  C  2 YY   -0.060662   0.000000   0.057995  -0.024973  -0.053221
   27  C  2 ZZ    0.001932   0.000000   0.068224  -0.040077   0.020521
   28  C  2 XY   -0.053034   0.000000   0.120699  -0.056859   0.025329
   29  C  2 XZ    0.000000  -0.016762   0.000000   0.000000   0.000000
   30  C  2 YZ    0.000000   0.099550   0.000000   0.000000   0.000000
   31  C  3  S   -0.010342   0.000000   0.007533  -0.016277   0.019808
   32  C  3  S    0.103702   0.000000   0.058151  -0.119897  -0.543877
   33  C  3  X   -0.213634   0.000000  -0.494731  -0.449581   0.000680
   34  C  3  Y    0.089230   0.000000  -0.022672   0.117682   0.218684
   35  C  3  Z    0.000000  -0.851443   0.000000   0.000000   0.000000
   36  C  3  S   -0.970443   0.000000  -0.383553   0.947344   0.845277
   37  C  3  X    0.352518   0.000000   0.332082   0.429769   0.198142
   38  C  3  Y   -0.525191   0.000000  -0.092920   0.076358  -0.505267
   39  C  3  Z    0.000000   1.342987   0.000000   0.000000   0.000000
   40  C  3 XX   -0.013058   0.000000  -0.086066  -0.172794   0.039506
   41  C  3 YY   -0.056914   0.000000   0.011243   0.003306  -0.083865
   42  C  3 ZZ    0.058536   0.000000   0.084662   0.147653  -0.032747
   43  C  3 XY   -0.031823   0.000000  -0.071972  -0.015272  -0.004196
   44  C  3 XZ    0.000000   0.139561   0.000000   0.000000   0.000000
   45  C  3 YZ    0.000000  -0.152950   0.000000   0.000000   0.000000
   46  H  4  S   -0.477173   0.000000   0.107067   0.001173   0.533414
   47  H  4  S    1.920294   0.000000  -0.263449  -0.672165  -1.067652
   48  H  5  S    0.383906   0.000000   0.029359   0.154153   0.552154
   49  H  5  S   -1.719542   0.000000   0.011689   0.341234  -1.375065
   50  H  6  S    0.064746   0.000000  -0.535047   0.470629  -0.161659
   51  H  6  S    0.352033   0.000000   2.050687  -1.363233   0.132891
   52  H  7  S    0.096473  -0.701317   0.234184   0.283727   0.166905
   53  H  7  S   -0.237331   1.441866  -0.372068  -0.587250  -0.439273
   54  H  8  S    0.096473   0.701317   0.234184   0.283727   0.166905
   55  H  8  S   -0.237331  -1.441866  -0.372068  -0.587250  -0.439273
   56  H  9  S   -0.135754   0.000000  -0.430411  -0.771667   0.404388
   57  H  9  S    0.385011   0.000000   0.815115   0.933204  -0.498078

                     36         37         38         39         40
                    0.9684     1.1194     1.2484     1.2996     1.4326
                     A'         A'         A'         A'         A'' 
    1  C  1  S   -0.014136  -0.035561  -0.006105  -0.010397   0.000000
    2  C  1  S    0.303393  -1.490581  -0.323184  -0.294470   0.000000
    3  C  1  X    0.228977   0.212367  -0.032467  -0.015688   0.000000
    4  C  1  Y    0.303721   0.116429   0.174586  -0.128409   0.000000
    5  C  1  Z    0.000000   0.000000   0.000000   0.000000  -0.124878
    6  C  1  S   -0.480972   5.581345   1.057298   1.335330   0.000000
    7  C  1  X   -0.575276  -2.174097   1.268896   0.258702   0.000000
    8  C  1  Y   -0.620468  -0.419050  -2.840198  -0.416781   0.000000
    9  C  1  Z    0.000000   0.000000   0.000000   0.000000   0.060706
   10  C  1 XX    0.011401   0.000839  -0.136117   0.031135   0.000000
   11  C  1 YY   -0.021932  -0.181753   0.103273   0.054816   0.000000
   12  C  1 ZZ    0.068089  -0.006194  -0.012510  -0.117376   0.000000
   13  C  1 XY    0.071142   0.073604   0.113233   0.030398   0.000000
   14  C  1 XZ    0.000000   0.000000   0.000000   0.000000  -0.393649
   15  C  1 YZ    0.000000   0.000000   0.000000   0.000000  -0.014303
   16  C  2  S   -0.016726   0.028398   0.010683   0.057601   0.000000
   17  C  2  S    0.053929   1.213399   0.524625   0.909637   0.000000
   18  C  2  X    0.058475   0.238778   0.175491   0.001592   0.000000
   19  C  2  Y    0.096942   0.221036  -0.262742  -0.041250   0.000000
   20  C  2  Z    0.000000   0.000000   0.000000   0.000000  -0.009570
   21  C  2  S   -0.356368  -4.715943  -1.564608  -4.269801   0.000000
   22  C  2  X   -0.232771  -1.454330  -1.793814  -0.339840   0.000000
   23  C  2  Y   -0.410302  -2.172972   2.886638   2.205162   0.000000
   24  C  2  Z    0.000000   0.000000   0.000000   0.000000  -0.070849
   25  C  2 XX   -0.010862   0.014102  -0.064775   0.113583   0.000000
   26  C  2 YY   -0.045988   0.113659   0.085431   0.053485   0.000000
   27  C  2 ZZ    0.036456   0.011947   0.016981  -0.110077   0.000000
   28  C  2 XY   -0.012124  -0.124114   0.069149  -0.033811   0.000000
   29  C  2 XZ    0.000000   0.000000   0.000000   0.000000   0.108048
   30  C  2 YZ    0.000000   0.000000   0.000000   0.000000   0.548487
   31  C  3  S    0.040460   0.038717   0.006746  -0.138097   0.000000
   32  C  3  S   -1.135935   0.468257   0.394111  -1.899181   0.000000
   33  C  3  X    0.085788   0.076728   0.295492   0.075573   0.000000
   34  C  3  Y    0.435395   0.025082   0.261664  -0.088514   0.000000
   35  C  3  Z    0.000000   0.000000   0.000000   0.000000   0.112715
   36  C  3  S    2.278357  -1.585551   1.186568   6.739354   0.000000
   37  C  3  X   -0.274368  -0.207668  -0.339781  -0.153436   0.000000
   38  C  3  Y   -0.831045  -0.157581   0.750327   1.463145   0.000000
   39  C  3  Z    0.000000   0.000000   0.000000   0.000000   0.163919
   40  C  3 XX   -0.022425   0.018688   0.029006  -0.102815   0.000000
   41  C  3 YY   -0.136366   0.063698   0.127729   0.014079   0.000000
   42  C  3 ZZ    0.016780   0.015389  -0.086679  -0.154775   0.000000
   43  C  3 XY   -0.005569   0.042509  -0.121141  -0.019318   0.000000
   44  C  3 XZ    0.000000   0.000000   0.000000   0.000000  -0.334208
   45  C  3 YZ    0.000000   0.000000   0.000000   0.000000  -0.466250
   46  H  4  S   -0.315669   0.076198  -0.682438  -0.157188   0.000000
   47  H  4  S    0.614499  -0.092426  -0.995860  -0.447745   0.000000
   48  H  5  S   -0.304849  -0.292788   0.664274   0.050006   0.000000
   49  H  5  S    0.787271  -0.471351   0.817715  -0.278534   0.000000
   50  H  6  S   -0.042280   0.318255  -0.605072   0.001882   0.000000
   51  H  6  S    0.110125   0.465553  -0.902092  -0.065265   0.000000
   52  H  7  S    0.528459   0.174282   0.030071  -0.494581   0.159975
   53  H  7  S   -0.990215   0.273863   0.276530  -0.551743  -0.023479
   54  H  8  S    0.528459   0.174282   0.030071  -0.494581  -0.159975
   55  H  8  S   -0.990215   0.273863   0.276530  -0.551743   0.023479
   56  H  9  S    0.419674   0.076806   0.056000  -0.517752   0.000000
   57  H  9  S   -1.085589  -0.052789  -0.226767  -0.800542   0.000000

                     41         42         43         44         45
                    1.4869     1.7124     1.8120     1.8984     1.9590
                     A''        A''        A'         A'         A'  
    1  C  1  S    0.000000   0.000000   0.015194   0.000051  -0.025003
    2  C  1  S    0.000000   0.000000  -0.106725  -0.003719  -0.177344
    3  C  1  X    0.000000   0.000000   0.165710   0.211280   0.082341
    4  C  1  Y    0.000000   0.000000   0.196050  -0.065825   0.219155
    5  C  1  Z   -0.124277  -0.021243   0.000000   0.000000   0.000000
    6  C  1  S    0.000000   0.000000  -1.349211  -0.891728   0.034500
    7  C  1  X    0.000000   0.000000   0.012803   0.051900  -0.064690
    8  C  1  Y    0.000000   0.000000   0.585505   0.603995   0.471008
    9  C  1  Z    0.036760   0.060454   0.000000   0.000000   0.000000
   10  C  1 XX    0.000000   0.000000  -0.127741   0.299639  -0.088727
   11  C  1 YY    0.000000   0.000000  -0.007722  -0.137990   0.590280
   12  C  1 ZZ    0.000000   0.000000   0.078200  -0.191341  -0.584451
   13  C  1 XY    0.000000   0.000000   0.200475  -0.261009  -0.001121
   14  C  1 XZ   -0.253602  -0.580139   0.000000   0.000000   0.000000
   15  C  1 YZ   -0.502593   0.700840   0.000000   0.000000   0.000000
   16  C  2  S    0.000000   0.000000  -0.007083  -0.017460  -0.042866
   17  C  2  S    0.000000   0.000000   0.010937  -0.622626  -0.397268
   18  C  2  X    0.000000   0.000000  -0.064157   0.033131  -0.150502
   19  C  2  Y    0.000000   0.000000  -0.042056   0.211696   0.122459
   20  C  2  Z   -0.147480  -0.038933   0.000000   0.000000   0.000000
   21  C  2  S    0.000000   0.000000   0.373482   1.650962   1.565454
   22  C  2  X    0.000000   0.000000   1.803035   1.171271   0.358696
   23  C  2  Y    0.000000   0.000000   0.081878  -1.047563  -0.627696
   24  C  2  Z   -0.018473  -0.157734   0.000000   0.000000   0.000000
   25  C  2 XX    0.000000   0.000000   0.161089  -0.293149   0.501658
   26  C  2 YY    0.000000   0.000000  -0.334795   0.513805   0.023005
   27  C  2 ZZ    0.000000   0.000000   0.185843  -0.252595  -0.566504
   28  C  2 XY    0.000000   0.000000   0.302222   0.218492  -0.269454
   29  C  2 XZ    0.648070   0.138403   0.000000   0.000000   0.000000
   30  C  2 YZ   -0.152488  -0.024515   0.000000   0.000000   0.000000
   31  C  3  S    0.000000   0.000000  -0.020079   0.043668   0.024796
   32  C  3  S    0.000000   0.000000   0.034307  -0.119214   0.411504
   33  C  3  X    0.000000   0.000000   0.086467   0.025204  -0.019708
   34  C  3  Y    0.000000   0.000000   0.088938  -0.266597   0.018368
   35  C  3  Z   -0.039150  -0.066942   0.000000   0.000000   0.000000
   36  C  3  S    0.000000   0.000000   0.158831  -1.175157  -1.538078
   37  C  3  X    0.000000   0.000000  -0.611690  -0.369898  -0.339431
   38  C  3  Y    0.000000   0.000000  -0.036143  -0.226093  -0.489397
   39  C  3  Z    0.165052   0.244955   0.000000   0.000000   0.000000
   40  C  3 XX    0.000000   0.000000   0.364539  -0.095440   0.233727
   41  C  3 YY    0.000000   0.000000  -0.163560   0.455670   0.001697
   42  C  3 ZZ    0.000000   0.000000  -0.180727  -0.369202  -0.276037
   43  C  3 XY    0.000000   0.000000  -0.748704  -0.370332  -0.051388
   44  C  3 XZ    0.216875   0.228059   0.000000   0.000000   0.000000
   45  C  3 YZ    0.140909   0.328206   0.000000   0.000000   0.000000
   46  H  4  S    0.000000   0.000000   0.338066  -0.286544   0.023922
   47  H  4  S    0.000000   0.000000   0.151084   0.322714   0.078335
   48  H  5  S    0.000000   0.000000  -0.067923   0.112136  -0.576456
   49  H  5  S    0.000000   0.000000  -0.096636  -0.183887  -0.081746
   50  H  6  S    0.000000   0.000000   0.432400   0.414786  -0.471091
   51  H  6  S    0.000000   0.000000   0.622307   0.358827   0.166324
   52  H  7  S    0.013376   0.012166  -0.110315   0.219881   0.205280
   53  H  7  S    0.130781   0.097083   0.106834   0.023769   0.136038
   54  H  8  S   -0.013376  -0.012166  -0.110315   0.219881   0.205280
   55  H  8  S   -0.130781  -0.097083   0.106834   0.023769   0.136038
   56  H  9  S    0.000000   0.000000  -0.105837   0.220915  -0.087939
   57  H  9  S    0.000000   0.000000  -0.162721  -0.109943  -0.004835

                     46         47         48         49         50
                    2.1274     2.1461     2.1959     2.2193     2.2818
                     A''        A'         A'         A''        A'  
    1  C  1  S    0.000000  -0.039217  -0.025750   0.000000  -0.015794
    2  C  1  S    0.000000  -0.388514  -0.192695   0.000000  -0.084442
    3  C  1  X    0.000000   0.169600   0.014247   0.000000   0.093602
    4  C  1  Y    0.000000   0.068584  -0.010460   0.000000  -0.006582
    5  C  1  Z   -0.006649   0.000000   0.000000   0.028806   0.000000
    6  C  1  S    0.000000   1.054608   1.362920   0.000000  -0.060869
    7  C  1  X    0.000000  -0.527372  -0.045713   0.000000   0.100848
    8  C  1  Y    0.000000  -0.399055  -0.111829   0.000000  -0.361835
    9  C  1  Z    0.118686   0.000000   0.000000   0.207969   0.000000
   10  C  1 XX    0.000000   0.470088   0.150021   0.000000   0.558837
   11  C  1 YY    0.000000  -0.191679   0.436671   0.000000  -0.415861
   12  C  1 ZZ    0.000000  -0.475339  -0.525464   0.000000  -0.212432
   13  C  1 XY    0.000000   0.424646  -0.615855   0.000000  -0.252839
   14  C  1 XZ    0.048212   0.000000   0.000000  -0.438375   0.000000
   15  C  1 YZ   -0.235590   0.000000   0.000000  -0.404121   0.000000
   16  C  2  S    0.000000  -0.023363   0.014928   0.000000  -0.026292
   17  C  2  S    0.000000  -0.273099   0.504131   0.000000   0.034409
   18  C  2  X    0.000000  -0.225266   0.197348   0.000000  -0.045588
   19  C  2  Y    0.000000  -0.214042  -0.120704   0.000000  -0.348339
   20  C  2  Z    0.022325   0.000000   0.000000  -0.115609   0.000000
   21  C  2  S    0.000000  -0.027821  -0.947681   0.000000   0.461968
   22  C  2  X    0.000000  -0.272976  -0.578573   0.000000   0.276745
   23  C  2  Y    0.000000  -0.163553  -0.391576   0.000000  -0.048681
   24  C  2  Z   -0.415491   0.000000   0.000000  -0.182216   0.000000
   25  C  2 XX    0.000000   0.181948  -0.241393   0.000000   0.003450
   26  C  2 YY    0.000000  -0.149796  -0.026249   0.000000  -0.003372
   27  C  2 ZZ    0.000000  -0.265499   0.351307   0.000000  -0.040777
   28  C  2 XY    0.000000   0.471679   0.019395   0.000000   0.128972
   29  C  2 XZ   -0.301034   0.000000   0.000000  -0.481934   0.000000
   30  C  2 YZ    0.687483   0.000000   0.000000   0.064873   0.000000
   31  C  3  S    0.000000   0.009697   0.000538   0.000000   0.018942
   32  C  3  S    0.000000   0.205499   0.158097   0.000000   0.142387
   33  C  3  X    0.000000   0.097830   0.085615   0.000000  -0.060014
   34  C  3  Y    0.000000   0.043239   0.021567   0.000000  -0.028072
   35  C  3  Z    0.056528   0.000000   0.000000  -0.110846   0.000000
   36  C  3  S    0.000000  -0.502782  -0.240286   0.000000  -0.469242
   37  C  3  X    0.000000   0.262329   0.209028   0.000000  -0.568112
   38  C  3  Y    0.000000  -0.253148  -0.272773   0.000000  -0.402235
   39  C  3  Z    0.730879   0.000000   0.000000  -0.203158   0.000000
   40  C  3 XX    0.000000  -0.431037  -0.168926   0.000000   0.858492
   41  C  3 YY    0.000000  -0.064772  -0.377931   0.000000  -0.519824
   42  C  3 ZZ    0.000000   0.484197   0.521638   0.000000  -0.301799
   43  C  3 XY    0.000000   0.124792  -0.257599   0.000000   0.347286
   44  C  3 XZ    0.736469   0.000000   0.000000  -0.542133   0.000000
   45  C  3 YZ    0.264514   0.000000   0.000000   0.685951   0.000000
   46  H  4  S    0.000000  -0.070226  -0.534784   0.000000  -0.452730
   47  H  4  S    0.000000  -0.058813  -0.055127   0.000000   0.085893
   48  H  5  S    0.000000   0.105932  -0.375710   0.000000   0.327599
   49  H  5  S    0.000000  -0.046625  -0.015541   0.000000   0.066036
   50  H  6  S    0.000000   0.107801   0.198265   0.000000   0.112231
   51  H  6  S    0.000000  -0.179317  -0.014079   0.000000   0.016228
   52  H  7  S    0.373430  -0.125603  -0.244840  -0.491326   0.225830
   53  H  7  S    0.151484   0.001100   0.050557   0.096783  -0.001918
   54  H  8  S   -0.373430  -0.125603  -0.244840   0.491326   0.225830
   55  H  8  S   -0.151484   0.001100   0.050557  -0.096783  -0.001918
   56  H  9  S    0.000000   0.343744   0.253682   0.000000  -0.648147
   57  H  9  S    0.000000   0.032517  -0.059373   0.000000  -0.004594

                     51         52         53         54         55
                    2.4839     2.5313     2.7549     2.8543     4.1176
                     A''        A'         A'         A'         A'  
    1  C  1  S    0.000000   0.047850  -0.054553   0.013347  -0.314521
    2  C  1  S    0.000000   0.084158   0.280245  -0.125224   2.153153
    3  C  1  X    0.000000   0.118870  -0.617022   0.238376  -0.073874
    4  C  1  Y    0.000000   0.079448  -0.383831   0.037068  -0.058499
    5  C  1  Z   -0.120643   0.000000   0.000000   0.000000   0.000000
    6  C  1  S    0.000000  -1.553687   1.849165  -0.298998   0.804853
    7  C  1  X    0.000000   0.434660  -1.083293  -0.111098   0.073044
    8  C  1  Y    0.000000   0.372155  -0.419191   0.455731   0.197635
    9  C  1  Z   -0.191047   0.000000   0.000000   0.000000   0.000000
   10  C  1 XX    0.000000   0.029829   0.487917  -0.742700  -1.213480
   11  C  1 YY    0.000000  -0.407470   0.019261   0.624137  -1.251744
   12  C  1 ZZ    0.000000   0.485264  -0.456301   0.118459  -1.215503
   13  C  1 XY    0.000000  -0.218355   0.879095   0.176518   0.026363
   14  C  1 XZ    0.638474   0.000000   0.000000   0.000000   0.000000
   15  C  1 YZ    0.308216   0.000000   0.000000   0.000000   0.000000
   16  C  2  S    0.000000  -0.093523   0.034186  -0.061941  -0.310090
   17  C  2  S    0.000000  -0.120313  -0.287150   0.144096   2.014131
   18  C  2  X    0.000000   0.106669  -0.619352   0.133749   0.083874
   19  C  2  Y    0.000000  -0.157898  -0.441793  -0.016074   0.059321
   20  C  2  Z    0.057590   0.000000   0.000000   0.000000   0.000000
   21  C  2  S    0.000000   2.718079  -1.335445   1.240013   0.868012
   22  C  2  X    0.000000   0.586523  -0.907027   0.193647   0.031367
   23  C  2  Y    0.000000  -0.596798  -1.088606  -0.705453  -0.123433
   24  C  2  Z    0.211994   0.000000   0.000000   0.000000   0.000000
   25  C  2 XX    0.000000   0.254992  -0.861124  -0.581048  -1.165234
   26  C  2 YY    0.000000   0.479194   0.476407   0.739563  -1.143264
   27  C  2 ZZ    0.000000  -0.821138   0.337414  -0.344697  -1.201595
   28  C  2 XY    0.000000  -0.248102  -0.782709   0.715951   0.032105
   29  C  2 XZ    0.619070   0.000000   0.000000   0.000000   0.000000
   30  C  2 YZ    0.582295   0.000000   0.000000   0.000000   0.000000
   31  C  3  S    0.000000   0.057260   0.024988   0.051937  -0.166341
   32  C  3  S    0.000000   0.078592  -0.018277  -0.163849   0.985751
   33  C  3  X    0.000000  -0.021191  -0.011111  -0.004107  -0.008467
   34  C  3  Y    0.000000  -0.264967  -0.147911  -0.314578   0.075309
   35  C  3  Z   -0.037030   0.000000   0.000000   0.000000   0.000000
   36  C  3  S    0.000000  -1.566102  -0.623208  -0.995429   0.519306
   37  C  3  X    0.000000   0.073751  -0.036515   0.044742  -0.002774
   38  C  3  Y    0.000000  -0.859725  -0.416811  -0.527930  -0.171522
   39  C  3  Z   -0.157224   0.000000   0.000000   0.000000   0.000000
   40  C  3 XX    0.000000   0.090148   0.188126   0.423941  -0.651805
   41  C  3 YY    0.000000  -0.601494  -0.298159  -0.493244  -0.492901
   42  C  3 ZZ    0.000000   0.626994   0.139739   0.238602  -0.662197
   43  C  3 XY    0.000000  -0.415310  -0.200383   0.256472  -0.017731
   44  C  3 XZ   -0.371965   0.000000   0.000000   0.000000   0.000000
   45  C  3 YZ    0.535990   0.000000   0.000000   0.000000   0.000000
   46  H  4  S    0.000000   0.049694   0.114070   0.332793   0.144291
   47  H  4  S    0.000000   0.110257   0.121584   0.072296  -0.238247
   48  H  5  S    0.000000   0.328958  -0.065041  -0.355287   0.122061
   49  H  5  S    0.000000  -0.024281   0.052204  -0.010703  -0.350836
   50  H  6  S    0.000000  -0.405198   0.017746   0.368022   0.139403
   51  H  6  S    0.000000   0.224557   0.018268  -0.096792  -0.217570
   52  H  7  S   -0.322172  -0.180764  -0.019688   0.001664   0.072286
   53  H  7  S    0.080014   0.060757   0.004792  -0.009738  -0.216791
   54  H  8  S    0.322172  -0.180764  -0.019688   0.001664   0.072286
   55  H  8  S   -0.080014   0.060757   0.004792  -0.009738  -0.216791
   56  H  9  S    0.000000   0.235044  -0.012378  -0.148637   0.057931
   57  H  9  S    0.000000   0.017924  -0.105414   0.131210  -0.164597

                     56         57
                    4.1992     4.4019
                     A'         A'  
    1  C  1  S    0.311406   0.170747
    2  C  1  S   -1.840952  -0.999947
    3  C  1  X   -0.170911  -0.250239
    4  C  1  Y   -0.128602  -0.125171
    5  C  1  Z    0.000000   0.000000
    6  C  1  S   -1.687824  -1.203226
    7  C  1  X    0.119392   0.096299
    8  C  1  Y    0.221890   0.082618
    9  C  1  Z    0.000000   0.000000
   10  C  1 XX    1.330353   0.944402
   11  C  1 YY    1.231506   0.717142
   12  C  1 ZZ    1.181006   0.594781
   13  C  1 XY    0.140291   0.148690
   14  C  1 XZ    0.000000   0.000000
   15  C  1 YZ    0.000000   0.000000
   16  C  2  S   -0.152712  -0.331939
   17  C  2  S    0.789217   2.015189
   18  C  2  X   -0.225929  -0.209311
   19  C  2  Y   -0.182237   0.011269
   20  C  2  Z    0.000000   0.000000
   21  C  2  S    0.813246   2.088961
   22  C  2  X    0.305499   0.088032
   23  C  2  Y    0.198285  -0.182633
   24  C  2  Z    0.000000   0.000000
   25  C  2 XX   -0.794166  -1.445183
   26  C  2 YY   -0.449798  -1.612651
   27  C  2 ZZ   -0.551449  -1.225733
   28  C  2 XY   -0.125096  -0.192288
   29  C  2 XZ    0.000000   0.000000
   30  C  2 YZ    0.000000   0.000000
   31  C  3  S   -0.353732   0.306052
   32  C  3  S    2.010910  -1.789730
   33  C  3  X   -0.014866  -0.010209
   34  C  3  Y   -0.015549   0.152293
   35  C  3  Z    0.000000   0.000000
   36  C  3  S    1.709828  -2.078100
   37  C  3  X    0.001975   0.024617
   38  C  3  Y   -0.028954  -0.190310
   39  C  3  Z    0.000000   0.000000
   40  C  3 XX   -1.329080   1.151747
   41  C  3 YY   -1.297447   1.459016
   42  C  3 ZZ   -1.370276   1.119002
   43  C  3 XY   -0.006402  -0.006574
   44  C  3 XZ    0.000000   0.000000
   45  C  3 YZ    0.000000   0.000000
   46  H  4  S   -0.063243  -0.069949
   47  H  4  S    0.334978   0.224810
   48  H  5  S   -0.106735  -0.049755
   49  H  5  S    0.230437   0.207873
   50  H  6  S    0.079721   0.078270
   51  H  6  S   -0.098804  -0.330623
   52  H  7  S    0.094036  -0.028308
   53  H  7  S   -0.386810   0.290140
   54  H  8  S    0.094036  -0.028308
   55  H  8  S   -0.386810   0.290140
   56  H  9  S    0.081768  -0.042931
   57  H  9  S   -0.340085   0.362284
 ...... END OF RHF CALCULATION ......
 STEP CPU TIME =     6.40 TOTAL CPU TIME =          6.4 (      0.1 MIN)
 TOTAL WALL CLOCK TIME=          6.6 SECONDS, CPU UTILIZATION IS    98.02%

     ---------------------------------------------------------------------
     PROPERTIES FOR THE B3LYP    DFT FUNCTIONAL (RHF  TYPE) DENSITY MATRIX
     ---------------------------------------------------------------------

          -----------------
          ENERGY COMPONENTS
          -----------------

         WAVEFUNCTION NORMALIZATION =       1.0000000000

                ONE ELECTRON ENERGY =    -297.1775105233
                TWO ELECTRON ENERGY =     108.5085066728
           NUCLEAR REPULSION ENERGY =      70.8529312776
                                      ------------------
                       TOTAL ENERGY =    -117.8160725729

 ELECTRON-ELECTRON POTENTIAL ENERGY =     108.5085066728
  NUCLEUS-ELECTRON POTENTIAL ENERGY =    -413.9205026080
   NUCLEUS-NUCLEUS POTENTIAL ENERGY =      70.8529312776
                                      ------------------
             TOTAL POTENTIAL ENERGY =    -234.5590646576
               TOTAL KINETIC ENERGY =     116.7429920847
                 VIRIAL RATIO (V/T) =       2.0091918193

          ---------------------------------------
          MULLIKEN AND LOWDIN POPULATION ANALYSES
          ---------------------------------------

     ATOMIC MULLIKEN POPULATION IN EACH MOLECULAR ORBITAL

                      1          2          3          4          5

                  2.000000   2.000000   2.000000   2.000000   2.000000

    1             0.003198   0.000032   1.995972   0.495803   0.558228
    2             1.995058   0.001562   0.003199   0.759774   0.269821
    3             0.001364   1.996797   0.000007   0.530179   0.725108
    4            -0.000013   0.000001   0.000409   0.029913   0.055803
    5             0.000010  -0.000000   0.000414   0.026258   0.085855
    6             0.000361  -0.000002  -0.000002   0.050044   0.003122
    7             0.000014   0.000535   0.000000   0.035446   0.094848
    8             0.000014   0.000535   0.000000   0.035446   0.094848
    9            -0.000004   0.000542  -0.000000   0.037137   0.112367

                      6          7          8          9         10

                  2.000000   2.000000   2.000000   2.000000   2.000000

    1             0.478313   0.589551   0.576559   0.034567   0.303571
    2             0.586369   0.394549   0.383822   0.155000   0.271979
    3             0.238663   0.358717   0.455813   1.030818   0.658364
    4             0.195305   0.019546   0.330080   0.000000   0.004073
    5             0.088793   0.326570   0.011825   0.000000   0.119649
    6             0.284106   0.139470   0.012313   0.000000   0.069517
    7             0.057834   0.000391   0.093807   0.389807   0.048256
    8             0.057834   0.000391   0.093807   0.389807   0.048256
    9             0.012784   0.170814   0.041973   0.000000   0.476335

                     11         12

                  2.000000   2.000000

    1             0.282243   1.004902
    2             0.423595   0.822711
    3             0.425791   0.061222
[...]
               TOTAL  0.05016149  0.19977877  0.08322319  0.11071108 14.96188183

                            6           7           8           9          10
       FREQUENCY:         7.52       13.01      415.69      590.51      924.37  
        SYMMETRY:         A''         A''         A'          A''         A'  
    REDUCED MASS:      2.33138     1.57537     1.98901     1.30952     2.04117
    IR INTENSITY:      0.00164     0.00045     0.01056     0.27294     0.01108

  1   C            X -0.00461470 -0.00002997  0.01488534 -0.00000157 -0.01839087
                   Y  0.00216396 -0.00000650  0.11650300 -0.00000285 -0.11185638
                   Z  0.18487753 -0.01692387  0.00000236  0.04019834 -0.00001286
  2   C            X -0.00195734 -0.00000906  0.11933378 -0.00000484  0.02339814
                   Y -0.00217167 -0.00004063 -0.06866738 -0.00000013 -0.09647159
                   Z -0.04889264 -0.12472100 -0.00000408 -0.13817851  0.00000184
  3   C            X  0.00378042  0.00003597 -0.08740084 -0.00000017  0.00327295
                   Y -0.00251946 -0.00004334 -0.06699641 -0.00000172  0.15277647
                   Z -0.12256318  0.13012546  0.00000027  0.01581070  0.00000387
  4   H            X -0.00275414 -0.00001533  0.14377207 -0.00000552  0.16240082
                   Y  0.00588538  0.00002280  0.37720052 -0.00001075  0.26264708
                   Z  0.34391443  0.27179278  0.00000091 -0.33603892  0.00003905
  5   H            X -0.00876393 -0.00006263 -0.27051195  0.00000557 -0.48255789
                   Y  0.00217659 -0.00000641  0.11918898 -0.00000307 -0.11315166
                   Z  0.22661175 -0.21323982  0.00000794  0.59202488  0.00006759
  6   H            X -0.00403155 -0.00002536  0.11040558 -0.00000538  0.09609701
                   Y -0.00576164 -0.00006886 -0.07840464 -0.00000099  0.01885950
                   Z -0.20009003 -0.41770616 -0.00000042  0.31356191 -0.00000708
  7   H            X  0.16857861  0.18148214 -0.18838185 -0.04296286  0.04978704
                   Y  0.03239021 -0.16007157 -0.17819203 -0.24273776  0.19739687
                   Z -0.04866823  0.30872644 -0.00181852  0.11167374  0.00497570
  8   H            X -0.15773512 -0.18138433 -0.18835588  0.04296810  0.04978362
                   Y -0.03372662  0.16001388 -0.17817804  0.24274007  0.19736913
                   Z -0.04866683  0.30872636  0.00181196  0.11167349 -0.00498043
  9   H            X  0.00506689  0.00004608 -0.16442619  0.00000189  0.02588327
                   Y -0.00646118 -0.00007430  0.16645258 -0.00000805  0.09822768
                   Z -0.32734265 -0.02209942  0.00002055  0.18564268 -0.00001076

 TRANS. SAYVETZ    X -0.03313587  0.00000416 -0.00004124 -0.00007717 -0.00001507
                   Y -0.03586631 -0.00127152 -0.00007756 -0.00007708 -0.00009446
                   Z  0.10639457  0.09981568  0.00000521  0.00016127 -0.00000097
               TOTAL  0.11706486  0.09982378  0.00008800  0.00019469  0.00009566

   ROT. SAYVETZ    X  9.50643989 -8.45986305 -0.00001353  0.00076877  0.00000346
                   Y -8.36889423 -1.73096071  0.00001437  0.00272287 -0.00000298
                   Z  0.45091374  0.00354373 -0.02175648  0.00003056 -0.00304650
               TOTAL 12.67336235  8.63513291  0.02175649  0.00282948  0.00304650

                           11          12          13          14          15
       FREQUENCY:       931.74      981.51     1023.53     1066.41     1184.31  
        SYMMETRY:         A''         A'          A''         A''         A'  
    REDUCED MASS:      1.33226     1.32811     1.05231     1.47933     1.73252
    IR INTENSITY:      0.72836     0.01382     0.40286     0.00286     0.14116

  1   C            X  0.00000140 -0.06359666 -0.00000123 -0.00000068  0.02001662
                   Y  0.00001060  0.00112592 -0.00000188 -0.00000140 -0.07543941
                   Z -0.14306900  0.00000118 -0.01094469 -0.02228788 -0.00000002
  2   C            X -0.00000139  0.02174400 -0.00000046 -0.00000070 -0.07726587
                   Y  0.00000895 -0.05221351 -0.00000297 -0.00000262  0.11518318
                   Z  0.03633784 -0.00000106 -0.02715975  0.12347766  0.00000040
  3   C            X  0.00000043  0.09425001  0.00000108  0.00000028  0.09460932
                   Y -0.00001355  0.07623250  0.00000326  0.00000239 -0.06142988
                   Z  0.01909888  0.00000172 -0.05466407 -0.11512010 -0.00000069
  4   H            X -0.00001549 -0.18775002 -0.00000165 -0.00000117  0.15967806
                   Y -0.00002440 -0.24731664 -0.00000251 -0.00000221  0.22208777
                   Z  0.54462494 -0.00001260  0.54153088 -0.05005566 -0.00000008
  5   H            X  0.00004531  0.16010100 -0.00000407 -0.00000323 -0.31304568
                   Y  0.00001076 -0.00456457 -0.00000215 -0.00000166 -0.06982084
                   Z  0.64135018  0.00000226 -0.32191735  0.05354973 -0.00000052
  6   H            X -0.00000860 -0.11933877 -0.00000250 -0.00000246  0.05321639
                   Y -0.00000261 -0.30085445 -0.00000665 -0.00000575  0.34508667
                   Z -0.06073495 -0.00000501  0.66458205 -0.34671115  0.00000129
  7   H            X -0.00141938 -0.19921438  0.00447830  0.03285929 -0.16459242
                   Y  0.08503544 -0.17191393 -0.21261969 -0.46124424 -0.24324526
                   Z -0.02291564 -0.03912596  0.05911876  0.13471035 -0.05291942
  8   H            X  0.00140726 -0.19921564 -0.00448187 -0.03286019 -0.16459361
                   Y -0.08507460 -0.17192554  0.21262189  0.46124840 -0.24323806
                   Z -0.02291419  0.03912384  0.05911974  0.13471080  0.05292209
  9   H            X -0.00000296 -0.07843329 -0.00000060 -0.00000012 -0.01552464
                   Y -0.00000459  0.59706354  0.00000853  0.00000385  0.24733147
                   Z -0.03597903 -0.00000479  0.10220356  0.23969232  0.00000019

 TRANS. SAYVETZ    X  0.00001142  0.00003545 -0.00001982 -0.00002111 -0.00002208
                   Y  0.00001153 -0.00011623 -0.00001973 -0.00002122 -0.00001108
                   Z  0.00000872 -0.00000024  0.00005930  0.00003082 -0.00000010
               TOTAL  0.00001842  0.00012151  0.00006557  0.00004296  0.00002470

   ROT. SAYVETZ    X  0.00051779  0.00000123 -0.00040489 -0.00092658  0.00000012
                   Y -0.00181537 -0.00000116  0.00133400 -0.00020912 -0.00000080
                   Z -0.00000400 -0.00247575  0.00000760  0.00000810 -0.00088896
               TOTAL  0.00188778  0.00247575  0.00139411  0.00094992  0.00088896

                           16          17          18          19          20
       FREQUENCY:      1344.39     1433.51     1471.32     1520.88     1522.62  
        SYMMETRY:         A'          A'          A'          A'          A'' 
    REDUCED MASS:      1.24499     1.18227     1.22299     1.05103     1.04423
    IR INTENSITY:      0.01389     0.02190     0.04312     0.10867     0.12228

  1   C            X -0.09881335  0.00314466 -0.03364892 -0.01215602 -0.00000067
                   Y  0.02087296 -0.00150829 -0.00005468 -0.01520995 -0.00000100
                   Z -0.00000002  0.00000000 -0.00000001 -0.00000015  0.00186320
  2   C            X  0.06811990 -0.03160814 -0.06123975 -0.00868096 -0.00000194
                   Y -0.04396666 -0.01919760 -0.08612013  0.01754259 -0.00000009
                   Z  0.00000021 -0.00000004  0.00000011  0.00000126 -0.01623986
  3   C            X  0.01197326  0.01172971  0.01774604 -0.04977215 -0.00000343
                   Y -0.02034318 -0.10911539  0.05823361 -0.02236207 -0.00000114
                   Z -0.00000031  0.00000000  0.00000010  0.00000388 -0.05389217
  4   H            X -0.25646874  0.11116523  0.22282880  0.02749725  0.00000210
                   Y -0.28531847  0.19276342  0.47564780  0.06311923  0.00000434
                   Z -0.00000045 -0.00000001 -0.00000017  0.00000026 -0.00440447
  5   H            X -0.01828354  0.20787208  0.62277639  0.03525359  0.00000313
                   Y  0.01006566  0.00627456  0.01420386 -0.01506250 -0.00000103
                   Z -0.00000013  0.00000005 -0.00000003 -0.00000073  0.01010789
  6   H            X  0.46685880 -0.02018290  0.12153005 -0.00700765  0.00000105
                   Y  0.64050149  0.01031303  0.23200075  0.02209277  0.00000542
                   Z  0.00000153 -0.00000003  0.00000053  0.00000007  0.00371986
  7   H            X  0.02086628  0.02729518 -0.05640098  0.48013213  0.38436698
                   Y  0.04386754  0.45364648 -0.14790964 -0.13296499  0.27820902
                   Z -0.02355187 -0.24292640  0.05554016  0.33554985  0.04841050
  8   H            X  0.02086630  0.02729451 -0.05639835  0.48018904 -0.38429568
                   Y  0.04387327  0.45364573 -0.14790594 -0.13292230 -0.27823110
                   Z  0.02355373  0.24292647 -0.05553998 -0.33555669  0.04835940
  9   H            X -0.01097284 -0.15427282  0.06417832 -0.17529682 -0.00001274
                   Y  0.06417626  0.42920675 -0.09338167  0.43426405  0.00003276
                   Z -0.00000160  0.00000069 -0.00000311 -0.00005281  0.70669714

 TRANS. SAYVETZ    X -0.00003204 -0.00007541 -0.00000989  0.00003712 -0.00000716
                   Y -0.00003007  0.00009092 -0.00003626  0.00003958 -0.00000717
                   Z -0.00000020  0.00000044 -0.00000019 -0.00000066  0.00002519
               TOTAL  0.00004394  0.00011813  0.00003759  0.00005426  0.00002715

   ROT. SAYVETZ    X  0.00000020 -0.00000114  0.00000065  0.00000159 -0.00051837
                   Y -0.00000031  0.00000039 -0.00000029 -0.00000087  0.00116102
                   Z -0.00095053 -0.00324473 -0.00127225 -0.00126547  0.00000315
               TOTAL  0.00095053  0.00324473  0.00127225  0.00126547  0.00127149

                           21          22          23          24          25
       FREQUENCY:      1729.74     3042.72     3094.10     3119.69     3146.82  
        SYMMETRY:         A'          A'          A''         A'          A'  
    REDUCED MASS:      4.33448     1.03771     1.10100     1.09871     1.06332
    IR INTENSITY:      0.18894     0.52711     0.52673     0.34718     0.65347

  1   C            X -0.14741899  0.00090566  0.00000010  0.00254574 -0.04882233
                   Y -0.09710361  0.00035573  0.00000003  0.00280469 -0.02328679
                   Z -0.00000002  0.00000000  0.00041755  0.00000000 -0.00000000
  2   C            X  0.14817903 -0.00065279  0.00000002  0.01909974 -0.03087387
                   Y  0.12694805 -0.00046473 -0.00000002 -0.00954079  0.02325678
                   Z  0.00000006  0.00000000 -0.00024124 -0.00000000  0.00000000
  3   C            X -0.01405732 -0.01295627  0.00000009 -0.08389810 -0.01810632
                   Y -0.01972919  0.04950460 -0.00000001 -0.00402466 -0.00058748
                   Z -0.00000083 -0.00000002 -0.08774394 -0.00000003 -0.00000044
  4   H            X  0.00281644 -0.01427988 -0.00000291 -0.03617130  0.55021061
                   Y  0.24986912  0.00893736  0.00000159  0.02106540 -0.28561327
                   Z -0.00000123  0.00000000 -0.00277742  0.00000001 -0.00000013
  5   H            X  0.18940073  0.00224569  0.00000010  0.00147376 -0.01192159
                   Y -0.11684656 -0.01389306 -0.00000367 -0.06103404  0.53497893
                   Z  0.00000039 -0.00000000  0.00093471 -0.00000001  0.00000005
  6   H            X -0.00820973  0.00852253 -0.00000027 -0.22477062  0.41261899
                   Y -0.18787204 -0.00326545  0.00000016  0.12788621 -0.23954915
                   Z  0.00000257 -0.00000001 -0.00438757 -0.00000001  0.00000019
  7   H            X -0.01830656  0.27876548 -0.31012053  0.10588856  0.02608077
                   Y  0.02004894 -0.23085956  0.26044389 -0.10455641 -0.02671327
                   Z -0.01950905 -0.51102374  0.53483347 -0.22518735 -0.05459725
  8   H            X -0.01831494  0.27876565  0.31012015  0.10588886  0.02608312
                   Y  0.02005129 -0.23085969 -0.26044352 -0.10455667 -0.02671533
                   Z  0.01951247  0.51102401  0.53483264  0.22518780  0.05460233
  9   H            X  0.01105591 -0.40273546 -0.00000063  0.78892392  0.16144063
                   Y -0.10581828 -0.11820899 -0.00000017  0.24933666  0.05096740
                   Z  0.00000382  0.00000000 -0.02075058 -0.00000000 -0.00000005

 TRANS. SAYVETZ    X  0.00011428  0.00002699 -0.00000176  0.00000200 -0.00000540
                   Y -0.00012791 -0.00000450 -0.00000167  0.00001475  0.00000297
                   Z -0.00000044  0.00000001  0.00003259  0.00000003 -0.00000004
               TOTAL  0.00017153  0.00002737  0.00003268  0.00001489  0.00000616

   ROT. SAYVETZ    X  0.00000142 -0.00000001 -0.00002668 -0.00000012  0.00000011
                   Y -0.00000127  0.00000002  0.00010370  0.00000008 -0.00000010
                   Z  0.00168883  0.00022669  0.00000065  0.00002106  0.00005478
               TOTAL  0.00168883  0.00022669  0.00010708  0.00002106  0.00005478

                           26          27
       FREQUENCY:      3154.44     3229.26  
        SYMMETRY:         A'          A'  
    REDUCED MASS:      1.08924     1.11497
    IR INTENSITY:      0.21790     0.56125

  1   C            X  0.04190273  0.03850890
                   Y  0.00401353 -0.08417838
                   Z  0.00000000 -0.00000000
  2   C            X -0.06272782  0.01177538
                   Y  0.02851073 -0.00579528
                   Z -0.00000000  0.00000000
  3   C            X -0.01648222  0.00082297
                   Y -0.00291064  0.00087577
                   Z  0.00000021 -0.00000011
  4   H            X -0.43066175 -0.48799395
                   Y  0.21917161  0.23523848
                   Z  0.00000007 -0.00000007
  5   H            X  0.00650265  0.00487047
                   Y -0.21240184  0.75959348
                   Z -0.00000003  0.00000003
  6   H            X  0.67159719 -0.11499772
                   Y -0.38450589  0.06531427
                   Z -0.00000011  0.00000012
  7   H            X  0.01636802  0.00044093
                   Y -0.01570036  0.00253542
                   Z -0.03591413  0.00183457
  8   H            X  0.01636704  0.00044126
                   Y -0.01569949  0.00253510
                   Z  0.03591178 -0.00183340
  9   H            X  0.16406087 -0.01132019
                   Y  0.05655314 -0.00436608
                   Z  0.00000002  0.00000000

 TRANS. SAYVETZ    X  0.00002239 -0.00003415
                   Y  0.00002173 -0.00002285
                   Z  0.00000001 -0.00000002
               TOTAL  0.00003120  0.00004109

   ROT. SAYVETZ    X -0.00000002  0.00000007
                   Y  0.00000017 -0.00000006
                   Z -0.00002816  0.00012540
               TOTAL  0.00002816  0.00012540

 REFERENCE ON SAYVETZ CONDITIONS - A. SAYVETZ, J.CHEM.PHYS., 7, 383-389(1939).

 NOTE - THE MODES J,K ARE ORTHONORMALIZED ACCORDING TO
 SUM ON I   M(I) * (X(I,J)*X(I,K) + Y(I,J)*Y(I,K) + Z(I,J)*Z(I,K)) = DELTA(J,K)

  MODE FREQ(CM**-1)  SYMMETRY  RED. MASS  IR INTENS.
     1     219.205    A''      1.096674    0.013064
     2       0.485    A''      4.677057    0.000001
     3       0.070    A'       4.676274    0.000000
     4       0.416    A''      4.681078    0.000000
     5       7.306    A'       2.590102    0.001865
     6       7.517    A''      2.331384    0.001643
     7      13.009    A''      1.575371    0.000447
     8     415.694    A'       1.989012    0.010565
     9     590.514    A''      1.309522    0.272942
    10     924.374    A'       2.041173    0.011077
    11     931.739    A''      1.332256    0.728365
    12     981.513    A'       1.328114    0.013819
    13    1023.529    A''      1.052308    0.402861
    14    1066.409    A''      1.479334    0.002856
    15    1184.307    A'       1.732524    0.141164
    16    1344.392    A'       1.244994    0.013889
    17    1433.511    A'       1.182274    0.021900
    18    1471.321    A'       1.222989    0.043118
    19    1520.878    A'       1.051028    0.108665
    20    1522.615    A''      1.044229    0.122277
    21    1729.735    A'       4.334476    0.188940
    22    3042.723    A'       1.037712    0.527114
    23    3094.102    A''      1.101004    0.526733
    24    3119.686    A'       1.098709    0.347185
    25    3146.815    A'       1.063322    0.653467
    26    3154.437    A'       1.089239    0.217904
    27    3229.262    A'       1.114975    0.561246

     -------------------------------
     THERMOCHEMISTRY AT T=  298.15 K
     -------------------------------

 USING IDEAL GAS, RIGID ROTOR, HARMONIC NORMAL MODE APPROXIMATIONS.
 P=  1.01325E+05 PASCAL.
 ALL FREQUENCIES ARE SCALED BY   1.00000
 THE MOMENTS OF INERTIA ARE (IN AMU*BOHR**2)
             38.83793           196.32232           223.93942
 THE ROTATIONAL SYMMETRY NUMBER IS  1.0
 THE ROTATIONAL CONSTANTS ARE (IN GHZ)
     46.42596     9.18433     8.05168
   1 IMAGINARY FREQUENCY VIBRATION(S) IS(ARE) EXCLUDED
     FROM THE FOLLOWING THERMOCHEMICAL ANALYSIS.
      8 -     27 VIBRATIONAL MODES ARE USED IN THERMOCHEMISTRY.
 THE HARMONIC ZERO POINT ENERGY IS (SCALED BY   1.000)
        0.079571 HARTREE/MOLECULE    17463.777979 CM**-1/MOLECULE 
       49.931497 KCAL/MOL              208.913383 KJ/MOL

               Q               LN Q
 ELEC.     1.00000E+00       0.000000
 TRANS.    1.07166E+07      16.187301
 ROT.      1.47918E+04       9.601825
 VIB.      1.29294E+00       0.256920
 TOT.      2.04953E+11      26.046046

              E         H         G         CV        CP        S
           KJ/MOL    KJ/MOL    KJ/MOL   J/MOL-K   J/MOL-K   J/MOL-K
 ELEC.      0.000     0.000     0.000     0.000     0.000     0.000
 TRANS.     3.718     6.197   -40.127    12.472    20.786   155.374
 ROT.       3.718     3.718   -23.802    12.472    12.472    92.305
 VIB.     210.773   210.773   208.276    21.616    21.616     8.375
 TOTAL    218.210   220.689   144.347    46.559    54.874   256.054
 VIB. THERMAL CORRECTION E(T)-E(0) = H(T)-H(0) =      1860.035 J/MOL

              E         H         G         CV        CP        S
         KCAL/MOL  KCAL/MOL  KCAL/MOL CAL/MOL-K CAL/MOL-K CAL/MOL-K
 ELEC.      0.000     0.000     0.000     0.000     0.000     0.000
 TRANS.     0.889     1.481    -9.591     2.981     4.968    37.135
 ROT.       0.889     0.889    -5.689     2.981     2.981    22.061
 VIB.      50.376    50.376    49.779     5.166     5.166     2.002
 TOTAL     52.153    52.746    34.500    11.128    13.115    61.198
 VIB. THERMAL CORRECTION E(T)-E(0) = H(T)-H(0) =       444.559 CAL/MOL
 ......END OF NORMAL COORDINATE ANALYSIS......
 STEP CPU TIME =     0.00 TOTAL CPU TIME =        454.6 (      7.6 MIN)
 TOTAL WALL CLOCK TIME=        475.1 SECONDS, CPU UTILIZATION IS    95.67%
               1075896  WORDS OF DYNAMIC MEMORY USED
 EXECUTION OF GAMESS TERMINATED NORMALLY Tue Oct  4 20:54:24 2022
 DDI: 263640 bytes (0.3 MB / 0 MWords) used by master data server.

 ----------------------------------------
 CPU timing information for all processes
 ========================================
 0: 451.444 + 3.157 = 454.601
 ----------------------------------------
 ddikick.x: exited gracefully.
----- accounting info -----
Files used on the master node chemcompute-node-2.novalocal were:
-rw-r--r--. 1 chemcomp chemcomp      964 Oct  4 20:46 /scratch/120786/460739.F05
-rw-rw-r--. 1 chemcomp chemcomp 65536000 Oct  4 20:54 /scratch/120786/460739.F10
-rw-rw-r--. 1 chemcomp chemcomp  4614952 Oct  4 20:54 /scratch/120786/460739.F22
Tue Oct  4 20:54:27 UTC 2022
0.099u 0.051s 7:58.54 0.0%	0+0k 8+208io 0pf+0w
Finishing Up...
Looking for IR data...
Looking for Raman data...
vibramans not found
Looking for thermodynamics data...
Looking for UV-Vis data...
chemcompute.org
{'UTCtimestamp': '2022-10-04T20:54:29.311880', 'cluster': 'jetstream2', 'clusterJobNumber': '120786', 'status': 'COMPLETE', 'nodeList': 'chemcompute-node-2'}
120786
